<?xml version="1.0"?>
<VTKFile type="UnstructuredGrid" version="0.1" byte_order="LittleEndian">
  <UnstructuredGrid>
    <Piece NumberOfPoints="20" NumberOfCells="10">
			 <CellData Scalars="scalars">
				 <DataArray type="Float64" Name="f" format="ascii">
0.00554519
0.00754429
0.325659
0.825546
0.362614
0.830153
0.637422
0.968486
0.358348
0.874757
				 </DataArray>
				 <DataArray type="Float64" NumberOfComponents="3" Name="u.x" format="ascii">
1.29552 1.03715 0.
1.24846 1.0849 0.
1.23932 1.05763 0.
1.19674 1.07739 0.
1.28539 1.00043 0.
1.24583 1.01684 0.
1.38853 0.900664 0.
1.33986 0.916463 0.
1.17715 1.10294 0.
1.121 1.11847 0.
				 </DataArray>
			 </CellData>
      <Points>
        <DataArray type="Float32" Name="vertices" NumberOfComponents="3" format="ascii">
5.28809 0.277209 0 5.28755 0.27832 1.5542e-313 5.28076 0.291717 0 5.28012 0.292969 1.5542e-313 5.28753 0.27832 0 5.28387 0.285645 1.5542e-313 5.28076 0.291665 0 5.28387 0.285645 1.5542e-313 5.29446 0.263672 0 5.29105 0.270996 1.5542e-313 5.28809 0.277148 0 5.29105 0.270996 1.5542e-313 5.30685 0.234375 0 5.30393 0.241699 1.5542e-313 5.30273 0.244553 0 5.30392 0.241699 1.5542e-313 5.2801 0.292969 0 5.27618 0.300293 1.5542e-313 5.27344 0.305213 0 5.27617 0.300293 1.5542e-313         </DataArray>
      </Points>
      <Cells>
        <DataArray type="Int32" Name="connectivity" format="ascii">
0 1 2 3 4 5 6 7 8 9 10 11 12 13 14 15 16 17 18 19         </DataArray>
        <DataArray type="Int32" Name="offsets" format="ascii">
2 4 6 8 10 12 14 16 18 20         </DataArray>
        <DataArray type="UInt8" Name="types" format="ascii">
7 7 7 7 7 7 7 7 7 7 
        </DataArray>
      </Cells>
      <PointData>
      </PointData>
    </Piece>
  </UnstructuredGrid>
</VTKFile>
