<?xml version="1.0"?>
<VTKFile type="UnstructuredGrid" version="0.1" byte_order="LittleEndian">
  <UnstructuredGrid>
    <Piece NumberOfPoints="92" NumberOfCells="46">
			 <CellData Scalars="scalars">
				 <DataArray type="Float64" Name="f" format="ascii">
0.492974
0.988224
0.28035
0.926841
0.140155
0.83442
0.0613456
0.73866
0.0245743
0.660961
0.0100055
0.613565
0.00575426
0.604985
0.00775015
0.642188
0.0193505
0.720024
0.0543297
0.824257
0.135132
0.927938
0.297644
0.994502
0.566443
0.0367566
0.850576
0.253758
0.996327
0.655527
0.130592
0.973769
0.593347
0.136955
0.987701
0.695954
0.308626
0.0242978
0.936028
0.649221
0.378201
0.146969
0.00486687
0.948821
0.796396
0.675134
				 </DataArray>
				 <DataArray type="Float64" NumberOfComponents="3" Name="u.x" format="ascii">
1.47545 -1.44892 0.
1.38886 -1.4244 0.
1.38303 -1.53426 0.
1.3254 -1.50587 0.
1.30082 -1.63195 0.
1.21415 -1.57971 0.
1.18192 -1.67316 0.
1.11227 -1.62252 0.
1.08607 -1.71496 0.
1.04704 -1.67266 0.
1.01469 -1.76655 0.
0.934264 -1.71878 0.
0.888084 -1.77916 0.
0.794018 -1.72689 0.
0.754729 -1.8157 0.
0.654161 -1.76403 0.
0.613228 -1.85194 0.
0.532426 -1.79266 0.
0.486612 -1.88439 0.
0.379198 -1.80351 0.
0.309193 -1.84781 0.
0.226762 -1.76122 0.
0.161024 -1.82034 0.
0.080157 -1.72551 0.
0.0224054 -1.79086 0.
-0.0229328 -1.82092 0.
-0.146358 -1.74673 0.
-0.214198 -1.7391 0.
-0.334157 -1.65101 0.
-0.387672 -1.68352 0.
-0.447554 -1.63347 0.
-0.578977 -1.56158 0.
-0.630742 -1.57178 0.
-0.684483 -1.50596 0.
-0.843955 -1.43647 0.
-0.910898 -1.42399 0.
-0.95574 -1.29594 0.
-0.985052 -1.23538 0.
-1.18369 -1.18471 0.
-1.25229 -1.10484 0.
-1.30545 -0.964461 0.
-1.34821 -0.826112 0.
-1.37019 -0.73595 0.
-1.56783 -0.703504 0.
-1.62816 -0.593443 0.
-1.67993 -0.456288 0.
				 </DataArray>
			 </CellData>
      <Points>
        <DataArray type="Float32" Name="vertices" NumberOfComponents="3" format="ascii">
11.3094 0.46875 0 11.315 0.476074 1.5542e-313 11.3149 0.476074 0 11.3159 0.477353 1.5542e-313 11.3159 0.477216 0 11.3208 0.483398 1.5542e-313 11.3207 0.483398 0 11.3232 0.48654 1.5542e-313 11.3232 0.486408 0 11.3267 0.490723 1.5542e-313 11.3267 0.490723 0 11.3306 0.495333 1.5542e-313 11.3306 0.495261 0 11.3329 0.498047 1.5542e-313 11.3329 0.498047 0 11.3379 0.503683 1.5542e-313 11.3379 0.503658 0 11.3394 0.505371 1.5542e-313 11.3394 0.505371 0 11.3452 0.511641 1.5542e-313 11.3452 0.511629 0 11.3462 0.512695 1.5542e-313 11.3462 0.512695 0 11.3525 0.519243 1.5542e-313 11.3525 0.51923 0 11.3533 0.52002 1.5542e-313 11.3533 0.52002 0 11.3599 0.52647 1.5542e-313 11.3599 0.526452 0 11.3608 0.527344 1.5542e-313 11.3608 0.527344 0 11.3672 0.533328 1.5542e-313 11.3672 0.533301 0 11.3687 0.534668 1.5542e-313 11.3687 0.534668 0 11.3745 0.539815 1.5542e-313 11.3745 0.539778 0 11.3771 0.541992 1.5542e-313 11.3771 0.541992 0 11.3818 0.545945 1.5542e-313 11.3818 0.545931 0 11.3861 0.549316 1.5542e-313 11.386 0.549316 0 11.3892 0.551757 1.5542e-313 11.3892 0.551752 0 11.3957 0.556641 1.5542e-313 11.3956 0.556641 0 11.3965 0.557294 1.5542e-313 11.3965 0.557244 0 11.4038 0.562388 1.5542e-313 11.4038 0.562356 0 11.4063 0.563965 1.5542e-313 11.4062 0.563965 0 11.4111 0.567213 1.5542e-313 11.4111 0.567194 0 11.4178 0.571289 1.5542e-313 11.4176 0.571289 0 11.4185 0.571774 1.5542e-313 11.4185 0.571714 0 11.4258 0.57591 1.5542e-313 11.4258 0.575885 0 11.4309 0.578613 1.5542e-313 11.4308 0.578613 0 11.4331 0.579836 1.5542e-313 11.4331 0.579798 0 11.4404 0.583386 1.5542e-313 11.4404 0.58337 0 11.4462 0.585938 1.5542e-313 11.446 0.585938 0 11.4478 0.586707 1.5542e-313 11.4478 0.58667 0 11.4551 0.589659 1.5542e-313 11.4551 0.589654 0 11.4624 0.592348 1.5542e-313 11.4624 0.592335 0 11.4652 0.593262 1.5542e-313 11.4652 0.593262 0 11.4697 0.594766 1.5542e-313 11.4697 0.594765 0 11.4771 0.596897 1.5542e-313 11.4771 0.596896 0 11.4844 0.598736 1.5542e-313 11.4844 0.598732 0 11.4917 0.600287 1.5542e-313 11.4917 0.600283 0 11.4934 0.600586 1.5542e-313 11.4934 0.600586 0 11.499 0.601567 1.5542e-313 11.499 0.601567 0 11.5063 0.602587 1.5542e-313 11.5063 0.602587 0 11.5137 0.603343 1.5542e-313         </DataArray>
      </Points>
      <Cells>
        <DataArray type="Int32" Name="connectivity" format="ascii">
0 1 2 3 4 5 6 7 8 9 10 11 12 13 14 15 16 17 18 19 20 21 22 23 24 25 26 27 28 29 30 31 32 33 34 35 36 37 38 39 40 41 42 43 44 45 46 47 48 49 50 51 52 53 54 55 56 57 58 59 60 61 62 63 64 65 66 67 68 69 70 71 72 73 74 75 76 77 78 79 80 81 82 83 84 85 86 87 88 89 90 91         </DataArray>
        <DataArray type="Int32" Name="offsets" format="ascii">
2 4 6 8 10 12 14 16 18 20 22 24 26 28 30 32 34 36 38 40 42 44 46 48 50 52 54 56 58 60 62 64 66 68 70 72 74 76 78 80 82 84 86 88 90 92         </DataArray>
        <DataArray type="UInt8" Name="types" format="ascii">
7 7 7 7 7 7 7 7 7 7 7 7 7 7 7 7 7 7 7 7 7 7 7 7 7 7 7 7 7 7 7 7 7 7 7 7 7 7 7 7 7 7 7 7 7 7 
        </DataArray>
      </Cells>
      <PointData>
      </PointData>
    </Piece>
  </UnstructuredGrid>
</VTKFile>
