<?xml version="1.0"?>
<VTKFile type="UnstructuredGrid" version="0.1" byte_order="LittleEndian">
  <UnstructuredGrid>
    <Piece NumberOfPoints="120" NumberOfCells="60">
			 <CellData Scalars="scalars">
				 <DataArray type="Float64" Name="f" format="ascii">
0.128312
0.985289
0.67601
0.257921
0.00382409
0.855029
0.478435
0.122139
0.994133
0.77197
0.445294
0.13646
0.999502
0.843693
0.568361
0.309757
0.073314
0.994428
0.842138
0.632838
0.439655
0.26242
0.100962
0.00213643
0.952993
0.824792
0.709829
0.610138
0.525628
0.456222
0.401877
0.362579
0.338337
0.329164
0.335071
0.356063
0.39215
0.443351
0.509699
0.591244
0.070604
0.688042
0.800152
0.927636
0.999923
0.228927
0.40295
0.592689
0.798268
0.0391839
0.98063
0.257482
0.51154
0.782225
0.0798565
0.374367
0.989906
0.696377
0.0628322
0.973216
				 </DataArray>
				 <DataArray type="Float64" NumberOfComponents="3" Name="u.x" format="ascii">
-0.0711357 -0.268263 0.
-0.102731 -0.274202 0.
-0.0991736 -0.27234 0.
-0.0983377 -0.246905 0.
-0.0836044 -0.237464 0.
-0.118943 -0.245932 0.
-0.118588 -0.231486 0.
-0.11366 -0.21434 0.
-0.138189 -0.21662 0.
-0.136963 -0.216901 0.
-0.135495 -0.20393 0.
-0.132249 -0.187983 0.
-0.156735 -0.189036 0.
-0.156356 -0.190076 0.
-0.157327 -0.177623 0.
-0.155951 -0.161807 0.
-0.148039 -0.144569 0.
-0.181532 -0.150086 0.
-0.182251 -0.145361 0.
-0.184247 -0.131474 0.
-0.184222 -0.11677 0.
-0.181556 -0.101857 0.
-0.181097 -0.0854837 0.
-0.17189 -0.0757333 0.
-0.206862 -0.0805564 0.
-0.210313 -0.0687565 0.
-0.212159 -0.0562674 0.
-0.213668 -0.0439544 0.
-0.213239 -0.031722 0.
-0.211993 -0.0196205 0.
-0.209551 -0.00741949 0.
-0.20652 0.00479991 0.
-0.202973 0.0168292 0.
-0.199406 0.0282223 0.
-0.195888 0.0388792 0.
-0.192746 0.0488603 0.
-0.190225 0.058546 0.
-0.188317 0.0681838 0.
-0.187004 0.0781393 0.
-0.186036 0.0884783 0.
-0.158932 0.126053 0.
-0.1851 0.0991924 0.
-0.1845 0.110194 0.
-0.182393 0.12126 0.
-0.181325 0.125378 0.
-0.159372 0.13922 0.
-0.160536 0.150809 0.
-0.161361 0.16248 0.
-0.159873 0.174212 0.
-0.130831 0.178431 0.
-0.159666 0.177842 0.
-0.131769 0.190173 0.
-0.13677 0.203675 0.
-0.134269 0.217732 0.
-0.104012 0.218591 0.
-0.107292 0.232712 0.
-0.135671 0.218232 0.
-0.108147 0.247933 0.
-0.0760763 0.247451 0.
-0.109003 0.24806 0.
				 </DataArray>
			 </CellData>
      <Points>
        <DataArray type="Float32" Name="vertices" NumberOfComponents="3" format="ascii">
3.38379 0.458944 0 3.38934 0.461426 1.5542e-313 3.38924 0.461426 0 3.39111 0.462266 1.5542e-313 3.39111 0.462232 0 3.39844 0.465366 1.5542e-313 3.39844 0.465365 0 3.40576 0.468357 1.5542e-313 3.40576 0.46835 0 3.40679 0.46875 1.5542e-313 3.40677 0.46875 0 3.41309 0.471212 1.5542e-313 3.41309 0.47121 0 3.42041 0.47393 1.5542e-313 3.42041 0.473923 0 3.4265 0.476074 1.5542e-313 3.4264 0.476074 0 3.42773 0.476546 1.5542e-313 3.42773 0.476516 0 3.43506 0.478973 1.5542e-313 3.43506 0.478972 0 3.44238 0.481302 1.5542e-313 3.44238 0.4813 0 3.44936 0.483398 1.5542e-313 3.44929 0.483398 0 3.44971 0.483525 1.5542e-313 3.44971 0.483504 0 3.45703 0.485583 1.5542e-313 3.45703 0.485582 0 3.46436 0.487538 1.5542e-313 3.46436 0.487537 0 3.47168 0.489371 1.5542e-313 3.47168 0.489367 0 3.47748 0.490723 1.5542e-313 3.4774 0.490723 0 3.479 0.491097 1.5542e-313 3.479 0.491083 0 3.48633 0.492675 1.5542e-313 3.48633 0.492675 0 3.49365 0.494149 1.5542e-313 3.49365 0.494148 0 3.50098 0.495505 1.5542e-313 3.50098 0.495505 0 3.5083 0.496745 1.5542e-313 3.5083 0.496745 0 3.51562 0.49787 1.5542e-313 3.51562 0.497869 0 3.51691 0.498047 1.5542e-313 3.51691 0.498047 0 3.52295 0.498881 1.5542e-313 3.52295 0.498881 0 3.53027 0.499779 1.5542e-313 3.53027 0.499779 0 3.5376 0.500565 1.5542e-313 3.5376 0.500565 0 3.54492 0.50124 1.5542e-313 3.54492 0.501239 0 3.55225 0.501803 1.5542e-313 3.55225 0.501803 0 3.55957 0.502256 1.5542e-313 3.55957 0.502256 0 3.56689 0.502599 1.5542e-313 3.56689 0.502599 0 3.57422 0.502832 1.5542e-313 3.57422 0.502832 0 3.58154 0.502954 1.5542e-313 3.58154 0.502954 0 3.58887 0.502966 1.5542e-313 3.58887 0.502966 0 3.59619 0.502868 1.5542e-313 3.59619 0.502868 0 3.60352 0.502659 1.5542e-313 3.60352 0.502659 0 3.61084 0.502339 1.5542e-313 3.61084 0.502339 0 3.61816 0.501909 1.5542e-313 3.61816 0.501909 0 3.62549 0.501367 1.5542e-313 3.62549 0.501367 0 3.63281 0.500714 1.5542e-313 3.66211 0.496979 0 3.65502 0.498047 1.5542e-313 3.63281 0.500714 0 3.64014 0.499949 1.5542e-313 3.64014 0.499949 0 3.64746 0.499072 1.5542e-313 3.64746 0.499072 0 3.65479 0.498082 1.5542e-313 3.65479 0.498082 0 3.65502 0.498047 1.5542e-313 3.66211 0.496979 0 3.66943 0.495761 1.5542e-313 3.66943 0.495762 0 3.67676 0.49443 1.5542e-313 3.67676 0.49443 0 3.68408 0.492982 1.5542e-313 3.68408 0.492982 0 3.69141 0.491418 1.5542e-313 3.69873 0.48974 0 3.69445 0.490723 1.5542e-313 3.69141 0.491413 0 3.69441 0.490723 1.5542e-313 3.69873 0.489737 0 3.70605 0.487936 1.5542e-313 3.70605 0.487937 0 3.71338 0.486015 1.5542e-313 3.71338 0.486016 0 3.7207 0.483971 1.5542e-313 3.72803 0.481806 0 3.72265 0.483398 1.5542e-313 3.72803 0.481804 0 3.73535 0.479509 1.5542e-313 3.7207 0.483965 0 3.72262 0.483398 1.5542e-313 3.73535 0.47951 0 3.74268 0.477086 1.5542e-313 3.75 0.474541 0 3.7456 0.476074 1.5542e-313 3.74268 0.477075 0 3.74555 0.476074 1.5542e-313         </DataArray>
      </Points>
      <Cells>
        <DataArray type="Int32" Name="connectivity" format="ascii">
0 1 2 3 4 5 6 7 8 9 10 11 12 13 14 15 16 17 18 19 20 21 22 23 24 25 26 27 28 29 30 31 32 33 34 35 36 37 38 39 40 41 42 43 44 45 46 47 48 49 50 51 52 53 54 55 56 57 58 59 60 61 62 63 64 65 66 67 68 69 70 71 72 73 74 75 76 77 78 79 80 81 82 83 84 85 86 87 88 89 90 91 92 93 94 95 96 97 98 99 100 101 102 103 104 105 106 107 108 109 110 111 112 113 114 115 116 117 118 119         </DataArray>
        <DataArray type="Int32" Name="offsets" format="ascii">
2 4 6 8 10 12 14 16 18 20 22 24 26 28 30 32 34 36 38 40 42 44 46 48 50 52 54 56 58 60 62 64 66 68 70 72 74 76 78 80 82 84 86 88 90 92 94 96 98 100 102 104 106 108 110 112 114 116 118 120         </DataArray>
        <DataArray type="UInt8" Name="types" format="ascii">
7 7 7 7 7 7 7 7 7 7 7 7 7 7 7 7 7 7 7 7 7 7 7 7 7 7 7 7 7 7 7 7 7 7 7 7 7 7 7 7 7 7 7 7 7 7 7 7 7 7 7 7 7 7 7 7 7 7 7 7 
        </DataArray>
      </Cells>
      <PointData>
      </PointData>
    </Piece>
  </UnstructuredGrid>
</VTKFile>
