<?xml version="1.0"?>
<VTKFile type="UnstructuredGrid" version="0.1" byte_order="LittleEndian">
  <UnstructuredGrid>
    <Piece NumberOfPoints="170" NumberOfCells="85">
			 <CellData Scalars="scalars">
				 <DataArray type="Float64" Name="f" format="ascii">
0.547609
0.99938
0.42785
0.990317
0.350934
0.980314
0.320955
0.97755
0.333126
0.984349
0.38525
0.995933
0.489871
0.00195706
0.641794
0.0360236
0.807591
0.140955
0.942923
0.366197
0.000270464
0.999996
0.689281
0.108268
0.945365
0.45512
0.0262832
0.869111
0.372397
0.0162879
0.871916
0.439911
0.0652087
0.96229
0.649097
0.306108
0.0359188
0.962147
0.724082
0.484787
0.279822
0.108737
0.00395447
0.966691
0.864637
0.791523
0.751534
0.744798
0.771207
0.83048
0.922401
0.00453906
0.0257427
0.342235
0.866758
0.161751
0.067592
0.654028
0.367133
0.954329
0.103855
0.302399
0.665661
0.999623
0.462587
0.950005
0.898719
0.0477675
0.0563158
0.0725185
0.0948981
0.123701
0.16
0.114136
0.172074
0.245282
0.19192
0.55221
0.684104
0.0182666
0.831356
0.902772
0.999595
0.173222
0.369111
				 </DataArray>
				 <DataArray type="Float64" NumberOfComponents="3" Name="u.x" format="ascii">
1.10612 -1.52314 0.
1.07249 -1.46206 0.
1.04622 -1.55954 0.
0.999839 -1.50087 0.
0.971453 -1.59654 0.
0.896137 -1.53737 0.
0.870146 -1.61704 0.
0.790526 -1.5652 0.
0.755077 -1.63844 0.
0.671408 -1.57435 0.
0.631426 -1.67819 0.
0.558263 -1.59851 0.
0.511279 -1.66797 0.
0.489838 -1.718 0.
0.395637 -1.67689 0.
0.362423 -1.71511 0.
0.267201 -1.65833 0.
0.219045 -1.68415 0.
0.132801 -1.61471 0.
0.0873838 -1.64565 0.
0.0684789 -1.67165 0.
0.00154179 -1.57177 0.
-0.04438 -1.63964 0.
-0.0935717 -1.60523 0.
-0.201354 -1.54225 0.
-0.239415 -1.54796 0.
-0.263414 -1.54997 0.
-0.396214 -1.49953 0.
-0.445241 -1.45166 0.
-0.46103 -1.44011 0.
-0.608425 -1.40307 0.
-0.660281 -1.33547 0.
-0.684723 -1.26979 0.
-0.83852 -1.22773 0.
-0.886651 -1.18784 0.
-0.918882 -1.07203 0.
-0.941499 -0.997989 0.
-1.10571 -0.969276 0.
-1.14645 -0.910692 0.
-1.18226 -0.811652 0.
-1.2107 -0.695265 0.
-1.22362 -0.570626 0.
-1.24659 -0.472497 0.
-1.46686 -0.445757 0.
-1.50478 -0.331164 0.
-1.53136 -0.202344 0.
-1.54999 -0.0747549 0.
-1.56231 0.0536974 0.
-1.57108 0.188222 0.
-1.57382 0.329636 0.
-1.56199 0.464505 0.
1.55584 1.83325 0.
1.42946 1.87956 0.
1.43574 1.85795 0.
1.36283 1.87854 0.
0.832591 2.12286 0.
1.09594 2.07093 0.
0.996398 2.10771 0.
0.866799 2.12613 0.
0.788402 2.1138 0.
1.32024 1.97408 0.
1.08293 2.01575 0.
1.20875 2.01537 0.
1.0644 2.00514 0.
1.32459 1.91533 0.
1.24666 1.93521 0.
1.03623 2.02593 0.
2.47961 0.0175216 0.
2.47513 0.0523726 0.
2.47304 0.0924549 0.
2.45527 0.133559 0.
2.43836 0.162154 0.
2.43552 0.18636 0.
2.46351 0.228807 0.
2.45128 0.289447 0.
2.4337 0.347209 0.
2.46519 0.44582 0.
2.36695 0.537081 0.
2.33162 0.600674 0.
2.37397 0.740726 0.
2.28774 0.659324 0.
2.2861 0.71085 0.
2.26233 0.742733 0.
2.32103 0.806556 0.
2.27581 0.87323 0.
				 </DataArray>
			 </CellData>
      <Points>
        <DataArray type="Float32" Name="vertices" NumberOfComponents="3" format="ascii">
8.65808 0.46875 0 8.6644 0.476074 1.5542e-313 8.66431 0.476074 0 8.66455 0.476349 1.5542e-313 8.66455 0.476244 0 8.67097 0.483398 1.5542e-313 8.6709 0.483398 0 8.67188 0.484463 1.5542e-313 8.67188 0.484383 0 8.67781 0.490723 1.5542e-313 8.67777 0.490723 0 8.6792 0.492203 1.5542e-313 8.6792 0.492138 0 8.68503 0.498047 1.5542e-313 8.68496 0.498047 0 8.68652 0.499588 1.5542e-313 8.68652 0.499524 0 8.69264 0.505371 1.5542e-313 8.69251 0.505371 0 8.69385 0.506627 1.5542e-313 8.69385 0.50655 0 8.70057 0.512695 1.5542e-313 8.70047 0.512695 0 8.70117 0.513319 1.5542e-313 8.70117 0.51325 0 8.7085 0.519613 1.5542e-313 8.7085 0.5196 0 8.709 0.52002 1.5542e-313 8.70899 0.52002 0 8.71582 0.525644 1.5542e-313 8.71582 0.525609 0 8.71805 0.527344 1.5542e-313 8.718 0.527344 0 8.72314 0.531354 1.5542e-313 8.72314 0.531326 0 8.72767 0.534668 1.5542e-313 8.72755 0.534668 0 8.73047 0.536769 1.5542e-313 8.73047 0.536757 0 8.73779 0.541863 1.5542e-313 8.73779 0.541855 0 8.738 0.541992 1.5542e-313 8.73777 0.541992 0 8.73779 0.542009 1.5542e-313 8.73799 0.541992 0 8.74512 0.54667 1.5542e-313 8.74512 0.546639 0 8.74946 0.549316 1.5542e-313 8.74936 0.549316 0 8.75244 0.551218 1.5542e-313 8.75244 0.551186 0 8.75977 0.555428 1.5542e-313 8.75977 0.555405 0 8.76205 0.556641 1.5542e-313 8.762 0.556641 0 8.76709 0.559398 1.5542e-313 8.76709 0.559393 0 8.77441 0.563082 1.5542e-313 8.77441 0.563062 0 8.77635 0.563965 1.5542e-313 8.77631 0.563965 0 8.78174 0.566496 1.5542e-313 8.78174 0.566491 0 8.78906 0.569643 1.5542e-313 8.78906 0.569626 0 8.79327 0.571289 1.5542e-313 8.79319 0.571289 0 8.79639 0.572554 1.5542e-313 8.79639 0.572538 0 8.80371 0.57518 1.5542e-313 8.80371 0.575179 0 8.81104 0.577563 1.5542e-313 8.81104 0.577554 0 8.81467 0.578613 1.5542e-313 8.81462 0.578613 0 8.81836 0.5797 1.5542e-313 8.81836 0.579694 0 8.82568 0.581574 1.5542e-313 8.82568 0.581573 0 8.83301 0.5832 1.5542e-313 8.83301 0.583199 0 8.84033 0.584577 1.5542e-313 8.84033 0.584575 0 8.84766 0.585707 1.5542e-313 8.84766 0.58571 0 8.84952 0.585938 1.5542e-313 8.84957 0.585938 0 8.85498 0.586598 1.5542e-313 8.85498 0.586601 0 8.8623 0.587257 1.5542e-313 8.8623 0.587257 0 8.86963 0.587672 1.5542e-313 8.86963 0.587672 0 8.87695 0.587843 1.5542e-313 8.87695 0.587843 0 8.88428 0.587771 1.5542e-313 8.88428 0.58777 0 8.8916 0.587456 1.5542e-313 8.8916 0.587456 0 8.89893 0.586902 1.5542e-313 8.89893 0.586902 0 8.90625 0.58611 1.5542e-313 9.14062 0.394541 0 9.14012 0.395508 1.5542e-313 9.1333 0.407936 0 9.13206 0.410156 1.5542e-313 9.1401 0.395508 0 9.13614 0.402832 1.5542e-313 9.1333 0.407884 0 9.13613 0.402832 1.5542e-313 9.09668 0.463987 0 9.09304 0.46875 1.5542e-313 9.11133 0.443502 0 9.10911 0.446777 1.5542e-313 9.104 0.454057 0 9.1091 0.446777 1.5542e-313 9.10399 0.454102 0 9.09864 0.461426 1.5542e-313 9.09668 0.463991 0 9.09859 0.461426 1.5542e-313 9.12598 0.420501 0 9.12339 0.424805 1.5542e-313 9.11865 0.43239 0 9.11406 0.439453 1.5542e-313 9.12339 0.424805 0 9.11882 0.432129 1.5542e-313 9.11865 0.432383 0 9.11881 0.432129 1.5542e-313 9.13204 0.410156 0 9.12779 0.41748 1.5542e-313 9.12598 0.420467 0 9.12777 0.41748 1.5542e-313 9.11133 0.443462 0 9.11404 0.439453 1.5542e-313 9.22818 0 0 9.22815 0.00732422 1.5542e-313 9.22815 0.00732422 0 9.22806 0.0146484 1.5542e-313 9.22806 0.0146484 0 9.22791 0.0219727 1.5542e-313 9.22791 0.0219727 0 9.22773 0.0292969 1.5542e-313 9.22773 0.0292969 0 9.22749 0.0366211 1.5542e-313 9.22749 0.0366211 0 9.2272 0.0439453 1.5542e-313 9.22721 0.0439453 0 9.22647 0.0585938 3.10839e-313 9.22648 0.0585938 0 9.22551 0.0732422 3.10839e-313 9.22551 0.0732422 0 9.22433 0.0878906 3.10839e-313 9.22439 0.0878906 0 9.22139 0.117188 6.21678e-313 9.22134 0.117188 0 9.21951 0.131836 3.10839e-313 9.21952 0.131836 0 9.21747 0.146484 3.10839e-313 9.21387 0.169009 0 9.21271 0.175781 3.10839e-313 9.21747 0.146484 0 9.2152 0.161133 3.10839e-313 9.21519 0.161133 0 9.21397 0.168457 1.5542e-313 9.21387 0.168955 0 9.21395 0.168457 1.5542e-313 9.2127 0.175781 0 9.20996 0.19043 3.10839e-313 9.20996 0.19043 0 9.20696 0.205078 3.10839e-313         </DataArray>
      </Points>
      <Cells>
        <DataArray type="Int32" Name="connectivity" format="ascii">
0 1 2 3 4 5 6 7 8 9 10 11 12 13 14 15 16 17 18 19 20 21 22 23 24 25 26 27 28 29 30 31 32 33 34 35 36 37 38 39 40 41 42 43 44 45 46 47 48 49 50 51 52 53 54 55 56 57 58 59 60 61 62 63 64 65 66 67 68 69 70 71 72 73 74 75 76 77 78 79 80 81 82 83 84 85 86 87 88 89 90 91 92 93 94 95 96 97 98 99 100 101 102 103 104 105 106 107 108 109 110 111 112 113 114 115 116 117 118 119 120 121 122 123 124 125 126 127 128 129 130 131 132 133 134 135 136 137 138 139 140 141 142 143 144 145 146 147 148 149 150 151 152 153 154 155 156 157 158 159 160 161 162 163 164 165 166 167 168 169         </DataArray>
        <DataArray type="Int32" Name="offsets" format="ascii">
2 4 6 8 10 12 14 16 18 20 22 24 26 28 30 32 34 36 38 40 42 44 46 48 50 52 54 56 58 60 62 64 66 68 70 72 74 76 78 80 82 84 86 88 90 92 94 96 98 100 102 104 106 108 110 112 114 116 118 120 122 124 126 128 130 132 134 136 138 140 142 144 146 148 150 152 154 156 158 160 162 164 166 168 170         </DataArray>
        <DataArray type="UInt8" Name="types" format="ascii">
7 7 7 7 7 7 7 7 7 7 7 7 7 7 7 7 7 7 7 7 7 7 7 7 7 7 7 7 7 7 7 7 7 7 7 7 7 7 7 7 7 7 7 7 7 7 7 7 7 7 7 7 7 7 7 7 7 7 7 7 7 7 7 7 7 7 7 7 7 7 7 7 7 7 7 7 7 7 7 7 7 7 7 7 7 
        </DataArray>
      </Cells>
      <PointData>
      </PointData>
    </Piece>
  </UnstructuredGrid>
</VTKFile>
