<?xml version="1.0"?>
<VTKFile type="UnstructuredGrid" version="0.1" byte_order="LittleEndian">
  <UnstructuredGrid>
    <Piece NumberOfPoints="56" NumberOfCells="28">
			 <CellData Scalars="scalars">
				 <DataArray type="Float64" Name="f" format="ascii">
0.0250158
0.483202
0.00576313
0.143505
0.966346
0.758651
0.446892
0.188057
0.972047
0.0511579
0.0026185
0.677272
0.334957
0.487024
0.994245
0.853143
0.087553
0.944965
0.493328
0.0540559
0.925893
0.491032
0.0718433
0.954697
0.585312
0.169453
0.997918
0.771661
				 </DataArray>
				 <DataArray type="Float64" NumberOfComponents="3" Name="u.x" format="ascii">
0.014034 0.96436 0.
-0.0153167 0.973607 0.
0.12783 1.0051 0.
0.0544684 0.982967 0.
-0.0359541 0.98768 0.
0.0366022 1.01699 0.
0.0935116 1.00862 0.
0.151507 1.02203 0.
0.0695643 1.02922 0.
0.215668 1.03714 0.
0.288717 1.05308 0.
0.183542 1.07707 0.
0.288442 1.07518 0.
0.245653 1.08404 0.
0.224184 1.07517 0.
0.123395 1.05229 0.
0.0216762 -0.842911 0.
-0.0427166 -0.831821 0.
-0.0524866 -0.82465 0.
-0.0447268 -0.796607 0.
-0.114095 -0.792307 0.
-0.126963 -0.77572 0.
-0.110705 -0.742165 0.
-0.191478 -0.745006 0.
-0.200792 -0.734093 0.
-0.205061 -0.683536 0.
-0.272035 -0.676239 0.
-0.278801 -0.6802 0.
				 </DataArray>
			 </CellData>
      <Points>
        <DataArray type="Float32" Name="vertices" NumberOfComponents="3" format="ascii">
4.62158 0.467496 0 4.61944 0.46875 1.5542e-313 4.62158 0.467454 0 4.62891 0.462967 1.5542e-313 4.64355 0.453464 0 4.64259 0.454102 1.5542e-313 4.63623 0.458285 0 4.63133 0.461426 1.5542e-313 4.62891 0.462943 0 4.63129 0.461426 1.5542e-313 4.63623 0.458262 0 4.64245 0.454102 1.5542e-313 4.64355 0.453384 0 4.65088 0.448273 1.5542e-313 4.6582 0.442943 0 4.65294 0.446777 1.5542e-313 4.65088 0.448234 0 4.65294 0.446777 1.5542e-313 4.66553 0.437424 0 4.66282 0.439453 1.5542e-313 4.67285 0.431655 0 4.67226 0.432129 1.5542e-313 4.66553 0.437363 0 4.67214 0.432129 1.5542e-313 4.6875 0.419245 0 4.68104 0.424805 1.5542e-313 4.67285 0.431582 0 4.68018 0.425542 1.5542e-313 4.68018 0.425527 0 4.68103 0.424805 1.5542e-313 4.6582 0.44291 0 4.66276 0.439453 1.5542e-313 4.21875 0.473797 0 4.22288 0.476074 1.5542e-313 4.2228 0.476074 0 4.22607 0.47788 1.5542e-313 4.22607 0.477858 0 4.2334 0.481713 1.5542e-313 4.2334 0.481694 0 4.2368 0.483398 1.5542e-313 4.23674 0.483398 0 4.24072 0.485395 1.5542e-313 4.24072 0.48538 0 4.24805 0.488872 1.5542e-313 4.24805 0.488854 0 4.25217 0.490723 1.5542e-313 4.25209 0.490723 0 4.25537 0.492206 1.5542e-313 4.25537 0.492187 0 4.2627 0.495333 1.5542e-313 4.2627 0.495327 0 4.26938 0.498047 1.5542e-313 4.26928 0.498047 0 4.27002 0.498348 1.5542e-313 4.27002 0.498311 0 4.27734 0.501128 1.5542e-313         </DataArray>
      </Points>
      <Cells>
        <DataArray type="Int32" Name="connectivity" format="ascii">
0 1 2 3 4 5 6 7 8 9 10 11 12 13 14 15 16 17 18 19 20 21 22 23 24 25 26 27 28 29 30 31 32 33 34 35 36 37 38 39 40 41 42 43 44 45 46 47 48 49 50 51 52 53 54 55         </DataArray>
        <DataArray type="Int32" Name="offsets" format="ascii">
2 4 6 8 10 12 14 16 18 20 22 24 26 28 30 32 34 36 38 40 42 44 46 48 50 52 54 56         </DataArray>
        <DataArray type="UInt8" Name="types" format="ascii">
7 7 7 7 7 7 7 7 7 7 7 7 7 7 7 7 7 7 7 7 7 7 7 7 7 7 7 7 
        </DataArray>
      </Cells>
      <PointData>
      </PointData>
    </Piece>
  </UnstructuredGrid>
</VTKFile>
