<?xml version="1.0"?>
<VTKFile type="UnstructuredGrid" version="0.1" byte_order="LittleEndian">
  <UnstructuredGrid>
    <Piece NumberOfPoints="312" NumberOfCells="156">
			 <CellData Scalars="scalars">
				 <DataArray type="Float64" Name="f" format="ascii">
0.436049
0.957585
0.145325
0.773602
0.0136312
0.495363
0.984551
0.244924
0.893879
0.0899917
0.746841
0.0173824
0.578094
0.999775
0.427356
0.986815
0.318635
0.965658
0.259497
0.951462
0.240459
0.949963
0.260505
0.965921
0.324768
0.98861
0.448304
0.000531551
0.633226
0.0409901
0.832368
0.188597
0.973559
0.49848
0.0281327
0.85441
0.31235
0.00169238
0.78929
0.318128
0.0112005
0.879927
0.509053
0.173585
0.000553028
0.881771
0.636551
0.437599
0.285115
0.178269
0.116499
0.0999521
0.0719508
0.0340341
0.771404
0.129439
0.206027
0.330662
0.504126
0.727204
0.0363354
0.962811
0.31993
0.694597
0.135228
0.608629
0.00247541
0.167541
0.984821
0.751805
0.988353
0.414159
0.178647
0.963862
0.865801
0.620427
0.262615
0.288408
0.672314
0.419052
0.481066
0.552226
0.220246
0.304104
0.720356
0.819943
0.0381853
0.160696
0.179044
0.319223
0.929652
0.999355
0.011277
0.213487
0.489896
0.0828092
0.776398
0.990089
0.0545382
0.363633
0.379286
0.696263
0.96987
0.00255497
0.254006
0.675764
0.127686
0.570561
0.986894
0.0943781
0.715112
0.98502
0.456663
0.845516
0.470659
0.184905
0.35583
1.12016e-05
0.102755
0.532998
0.716611
0.906416
0.306429
0.517424
0.0123867
0.735517
0.948701
0.194612
0.436715
0.687372
0.935049
0.0834272
0.000849557
0.168126
0.73776
0.352802
0.91897
0.0890015
0.194956
0.881726
0.0272671
0.0420061
0.728939
0.720061
0.789811
0.00045786
0.399606
0.68302
0.966826
0.0849847
0.539074
0.0947782
0.590393
0.958999
0.96058
0.984483
				 </DataArray>
				 <DataArray type="Float64" NumberOfComponents="3" Name="u.x" format="ascii">
2.02708 -1.11605 0.
1.94823 -1.11507 0.
1.95454 -1.208 0.
1.93326 -1.21637 0.
1.92791 -1.35307 0.
1.80529 -1.32093 0.
1.72016 -1.3032 0.
1.72045 -1.42011 0.
1.66088 -1.40365 0.
1.64265 -1.55082 0.
1.54689 -1.51721 0.
1.52138 -1.64114 0.
1.39877 -1.5936 0.
1.36941 -1.52826 0.
1.33618 -1.68801 0.
1.27968 -1.6142 0.
1.22897 -1.76965 0.
1.12591 -1.67583 0.
1.06317 -1.78669 0.
1.01325 -1.71981 0.
0.95636 -1.86418 0.
0.867097 -1.78181 0.
0.803926 -1.96031 0.
0.67981 -1.84871 0.
0.583842 -1.96085 0.
0.501703 -1.84085 0.
0.41434 -1.93936 0.
0.358332 -2.02464 0.
0.276624 -1.94837 0.
0.207253 -2.04031 0.
0.0803218 -1.936 0.
-0.0141875 -1.98042 0.
-0.140901 -1.86525 0.
-0.217937 -1.90813 0.
-0.281787 -1.95261 0.
-0.44774 -1.85047 0.
-0.543885 -1.80306 0.
-0.594674 -1.80999 0.
-0.766557 -1.75037 0.
-0.849928 -1.64936 0.
-0.899827 -1.64966 0.
-1.13066 -1.56832 0.
-1.23769 -1.44707 0.
-1.31317 -1.2796 0.
-1.36494 -1.20857 0.
-1.58912 -1.15608 0.
-1.68557 -1.01579 0.
-1.76973 -0.85012 0.
-1.845 -0.661479 0.
-1.90965 -0.447331 0.
-1.96295 -0.212924 0.
-1.99866 0.0265576 0.
-0.255025 2.63646 0.
-0.030965 2.67581 0.
-0.349406 2.75065 0.
-2.01613 0.254465 0.
-2.02561 0.471167 0.
-2.03337 0.693845 0.
-2.04328 0.937219 0.
-2.03092 1.19127 0.
-1.705 1.38258 0.
-2.00085 1.34892 0.
-1.70045 1.58982 0.
-1.68545 1.83069 0.
-1.38549 1.89009 0.
-1.38326 2.15475 0.
-0.684683 2.39881 0.
-1.08977 2.19989 0.
-1.38535 2.19905 0.
-1.10542 2.43542 0.
-1.66837 1.86694 0.
-0.789275 2.53282 0.
-0.537192 2.55875 0.
-0.819124 2.56807 0.
-0.5838 2.67757 0.
2.7704 0.0540747 0.
2.8208 0.136713 0.
2.81909 0.194609 0.
2.74599 0.279322 0.
2.78389 0.368169 0.
2.76328 0.424582 0.
2.74887 0.496405 0.
2.74004 0.543946 0.
2.74833 0.572913 0.
2.70808 0.619156 0.
2.68651 0.680268 0.
2.71092 0.79605 0.
2.70149 0.828242 0.
2.70394 0.874756 0.
2.67469 0.944131 0.
2.65351 0.745089 0.
2.61059 0.807354 0.
2.41129 1.59829 0.
2.35031 1.64202 0.
2.31202 1.6809 0.
2.28934 1.77884 0.
2.26716 1.72168 0.
2.20421 1.76076 0.
2.18635 1.90353 0.
2.11601 1.95129 0.
2.23079 1.82061 0.
2.17097 1.8609 0.
2.09782 1.8996 0.
1.98408 2.11862 0.
1.89144 2.17681 0.
1.8084 2.22715 0.
1.80029 2.27042 0.
1.69102 2.32409 0.
1.70109 2.26826 0.
2.05798 2.03715 0.
2.05052 1.99678 0.
1.96546 2.03694 0.
1.97341 2.08487 0.
1.8935 2.13078 0.
2.63343 1.01844 0.
2.6398 1.07487 0.
2.61788 1.11102 0.
2.59111 1.22987 0.
2.56325 1.26877 0.
2.58801 1.1508 0.
2.56419 1.18644 0.
2.52724 1.22322 0.
2.54138 1.30627 0.
2.50746 1.34417 0.
2.50253 1.41615 0.
2.46549 1.38244 0.
2.42239 1.42094 0.
2.46335 1.46231 0.
2.43007 1.50454 0.
2.38503 1.5474 0.
2.32839 1.59011 0.
1.03245 2.66639 0.
1.31266 2.58123 0.
1.33383 2.54688 0.
1.20057 2.6229 0.
1.07342 2.6535 0.
0.935574 2.68438 0.
0.501614 2.74378 0.
0.613978 2.75591 0.
0.392369 2.80936 0.
0.187357 2.70671 0.
0.357172 2.72237 0.
0.0649527 2.80814 0.
-0.136453 2.79003 0.
0.23923 2.81878 0.
0.979042 2.68778 0.
0.723333 2.77492 0.
0.860421 2.74637 0.
0.529715 2.79101 0.
1.68467 2.36727 0.
1.55336 2.42525 0.
1.53225 2.45323 0.
1.37511 2.51725 0.
1.42366 2.46877 0.
1.58062 2.36813 0.
1.2376 2.54901 0.
				 </DataArray>
			 </CellData>
      <Points>
        <DataArray type="Float32" Name="vertices" NumberOfComponents="3" format="ascii">
39.9691 0.46875 0 39.9739 0.476074 1.5542e-313 39.9738 0.476074 0 39.9756 0.478683 1.5542e-313 39.9756 0.478594 0 39.9788 0.483398 1.5542e-313 39.9788 0.483398 0 39.9829 0.489305 1.5542e-313 39.9829 0.489262 0 39.9839 0.490723 1.5542e-313 39.9839 0.490723 0 39.9892 0.498047 1.5542e-313 39.9891 0.498047 0 39.9902 0.499556 1.5542e-313 39.9902 0.499429 0 39.9947 0.505371 1.5542e-313 39.9946 0.505371 0 39.9976 0.509245 1.5542e-313 39.9976 0.50913 0 40.0003 0.512695 1.5542e-313 40.0002 0.512695 0 40.0049 0.518533 1.5542e-313 40.0049 0.518492 0 40.0061 0.52002 1.5542e-313 40.0061 0.52002 0 40.0122 0.527344 1.5542e-313 40.0121 0.527344 0 40.0122 0.527513 1.5542e-313 40.0122 0.527382 0 40.0185 0.534668 1.5542e-313 40.0184 0.534668 0 40.0195 0.535935 1.5542e-313 40.0195 0.535825 0 40.0251 0.541992 1.5542e-313 40.025 0.541992 0 40.0269 0.543988 1.5542e-313 40.0269 0.54387 0 40.032 0.549316 1.5542e-313 40.0319 0.549316 0 40.0342 0.55163 1.5542e-313 40.0342 0.551561 0 40.0393 0.556641 1.5542e-313 40.0392 0.556641 0 40.0415 0.558926 1.5542e-313 40.0415 0.558857 0 40.047 0.563965 1.5542e-313 40.0468 0.563965 0 40.0488 0.565797 1.5542e-313 40.0488 0.565723 0 40.0551 0.571289 1.5542e-313 40.055 0.571289 0 40.0562 0.572319 1.5542e-313 40.0562 0.572254 0 40.0635 0.578405 1.5542e-313 40.0635 0.578399 0 40.0637 0.578613 1.5542e-313 40.0637 0.578613 0 40.0708 0.58418 1.5542e-313 40.0708 0.584148 0 40.0733 0.585938 1.5542e-313 40.0732 0.585938 0 40.0781 0.589575 1.5542e-313 40.0781 0.589532 0 40.0836 0.593262 1.5542e-313 40.0834 0.593262 0 40.0854 0.594637 1.5542e-313 40.0854 0.594592 0 40.0928 0.599278 1.5542e-313 40.0928 0.599248 0 40.095 0.600586 1.5542e-313 40.095 0.600586 0 40.1001 0.60363 1.5542e-313 40.1001 0.603624 0 40.1074 0.607621 1.5542e-313 40.1074 0.60761 0 40.108 0.60791 1.5542e-313 40.108 0.60791 0 40.1147 0.611262 1.5542e-313 40.1147 0.611257 0 40.1221 0.614552 1.5542e-313 40.1221 0.614537 0 40.1238 0.615234 1.5542e-313 40.1238 0.615234 0 40.1294 0.617517 1.5542e-313 40.1294 0.617516 0 40.1367 0.620144 1.5542e-313 40.1367 0.62014 0 40.144 0.622435 1.5542e-313 40.144 0.622432 0 40.1445 0.622559 1.5542e-313 40.1445 0.622559 0 40.1514 0.624404 1.5542e-313 40.1514 0.624406 0 40.1587 0.626035 1.5542e-313 40.1587 0.626034 0 40.166 0.627321 1.5542e-313 40.166 0.62732 0 40.1733 0.628269 1.5542e-313 40.1733 0.628268 0 40.1807 0.628886 1.5542e-313 40.1807 0.628886 0 40.188 0.629173 1.5542e-313 40.188 0.629174 0 40.1953 0.629127 1.5542e-313 40.3052 0.5834 0 40.3021 0.585938 1.5542e-313 40.3125 0.576775 0 40.3105 0.578613 1.5542e-313 40.3052 0.583288 0 40.3104 0.578613 1.5542e-313 40.1953 0.629129 0 40.2026 0.628741 1.5542e-313 40.2026 0.628742 0 40.21 0.628005 1.5542e-313 40.21 0.628007 0 40.2173 0.626915 1.5542e-313 40.2173 0.626917 0 40.2246 0.625464 1.5542e-313 40.2246 0.625463 0 40.2319 0.62365 1.5542e-313 40.2393 0.621484 0 40.2356 0.622559 1.5542e-313 40.2319 0.623646 0 40.2356 0.622559 1.5542e-313 40.2393 0.621489 0 40.2466 0.618942 1.5542e-313 40.2466 0.618943 0 40.2539 0.616 1.5542e-313 40.2612 0.612659 0 40.2556 0.615234 1.5542e-313 40.2612 0.61266 0 40.2686 0.608893 1.5542e-313 40.2832 0.600179 0 40.2826 0.600586 1.5542e-313 40.2759 0.604701 0 40.2703 0.60791 1.5542e-313 40.2686 0.608875 0 40.2702 0.60791 1.5542e-313 40.2759 0.604685 0 40.2824 0.600586 1.5542e-313 40.2539 0.61599 0 40.2556 0.615234 1.5542e-313 40.2832 0.600094 0 40.2905 0.595011 1.5542e-313 40.2979 0.589441 0 40.2928 0.593262 1.5542e-313 40.2905 0.594948 0 40.2928 0.593262 1.5542e-313 40.2979 0.589362 0 40.3021 0.585938 1.5542e-313 40.4702 0 0 40.47 0.0292969 6.21678e-313 40.4699 0.0292969 0 40.4696 0.0439453 3.10839e-313 40.4696 0.0439453 0 40.4692 0.0585938 3.10839e-313 40.4692 0.0585938 0 40.4679 0.0878906 6.21678e-313 40.4679 0.0878906 0 40.4671 0.102539 3.10839e-313 40.4671 0.102539 0 40.4661 0.117188 3.10839e-313 40.4661 0.117188 0 40.465 0.131836 3.10839e-313 40.465 0.131836 0 40.4644 0.13916 1.5542e-313 40.4644 0.13916 0 40.4638 0.146484 1.5542e-313 40.4638 0.146484 0 40.4624 0.161133 3.10839e-313 40.4624 0.161133 0 40.4609 0.175781 3.10839e-313 40.459 0.19196 0 40.4583 0.197754 1.5542e-313 40.4583 0.197754 0 40.4573 0.205078 1.5542e-313 40.4574 0.205078 0 40.4554 0.219727 3.10839e-313 40.4554 0.219727 0 40.4532 0.234375 3.10839e-313 40.4609 0.175781 0 40.4592 0.19043 3.10839e-313 40.459 0.191919 0 40.4592 0.19043 3.10839e-313 40.4297 0.349418 0 40.4291 0.351562 1.5542e-313 40.4291 0.351562 0 40.4271 0.358887 1.5542e-313 40.4271 0.358887 0 40.4251 0.366211 1.5542e-313 40.4224 0.37543 0 40.4207 0.380859 1.5542e-313 40.4251 0.366211 0 40.4229 0.373535 1.5542e-313 40.4224 0.375413 0 40.4229 0.373535 1.5542e-313 40.415 0.398644 0 40.4136 0.402832 1.5542e-313 40.4136 0.402832 0 40.4111 0.410156 1.5542e-313 40.4207 0.380859 0 40.4184 0.388184 1.5542e-313 40.4184 0.388184 0 40.4161 0.395508 1.5542e-313 40.415 0.39862 0 40.4161 0.395508 1.5542e-313 40.4004 0.438624 0 40.4001 0.439453 1.5542e-313 40.4 0.439453 0 40.397 0.446777 1.5542e-313 40.397 0.446777 0 40.3939 0.454102 1.5542e-313 40.3931 0.455892 0 40.3906 0.461426 1.5542e-313 40.3906 0.461426 0 40.3872 0.46875 1.5542e-313 40.3931 0.455874 0 40.3939 0.454102 1.5542e-313 40.4077 0.419579 0 40.4058 0.424805 1.5542e-313 40.4111 0.410156 0 40.4085 0.41748 1.5542e-313 40.4077 0.419562 0 40.4085 0.41748 1.5542e-313 40.4058 0.424805 0 40.403 0.432129 1.5542e-313 40.4004 0.438577 0 40.403 0.432129 1.5542e-313 40.4532 0.234375 0 40.4509 0.249023 3.10839e-313 40.4509 0.249023 0 40.4497 0.256348 1.5542e-313 40.4497 0.256348 0 40.4484 0.263672 1.5542e-313 40.4443 0.285566 0 40.4443 0.285645 1.5542e-313 40.4443 0.285645 0 40.4429 0.292969 1.5542e-313 40.4484 0.263672 0 40.4471 0.270996 1.5542e-313 40.4471 0.270996 0 40.4457 0.27832 1.5542e-313 40.4443 0.285532 0 40.4457 0.27832 1.5542e-313 40.4429 0.292969 0 40.4413 0.300293 1.5542e-313 40.4413 0.300293 0 40.4398 0.307617 1.5542e-313 40.437 0.319859 0 40.4365 0.322266 1.5542e-313 40.4398 0.307617 0 40.4381 0.314941 1.5542e-313 40.437 0.319838 0 40.4381 0.314941 1.5542e-313 40.4365 0.322266 0 40.4347 0.32959 1.5542e-313 40.4347 0.32959 0 40.4329 0.336914 1.5542e-313 40.4329 0.336914 0 40.431 0.344238 1.5542e-313 40.4297 0.349385 0 40.431 0.344238 1.5542e-313 40.3564 0.523676 0 40.354 0.527344 1.5542e-313 40.3638 0.512303 0 40.3635 0.512695 1.5542e-313 40.3711 0.499766 0 40.3679 0.505371 1.5542e-313 40.3638 0.512218 0 40.3679 0.505371 1.5542e-313 40.3635 0.512695 0 40.3589 0.52002 1.5542e-313 40.3564 0.523635 0 40.3588 0.52002 1.5542e-313 40.3345 0.553253 0 40.3317 0.556641 1.5542e-313 40.3418 0.544156 0 40.3377 0.549316 1.5542e-313 40.3345 0.553265 0 40.3377 0.549316 1.5542e-313 40.3198 0.569567 0 40.3181 0.571289 1.5542e-313 40.3271 0.561736 0 40.3251 0.563965 1.5542e-313 40.3198 0.569515 0 40.3251 0.563965 1.5542e-313 40.3125 0.576678 0 40.3181 0.571289 1.5542e-313 40.3271 0.561705 0 40.3316 0.556641 1.5542e-313 40.3491 0.534403 0 40.3489 0.534668 1.5542e-313 40.3489 0.534668 0 40.3435 0.541992 1.5542e-313 40.3491 0.534321 0 40.354 0.527344 1.5542e-313 40.3418 0.544152 0 40.3434 0.541992 1.5542e-313 40.3857 0.471735 0 40.3836 0.476074 1.5542e-313 40.3836 0.476074 0 40.3799 0.483398 1.5542e-313 40.3784 0.486324 0 40.3761 0.490723 1.5542e-313 40.3761 0.490723 0 40.3721 0.498047 1.5542e-313 40.3784 0.486291 0 40.3799 0.483398 1.5542e-313 40.3857 0.471705 0 40.3872 0.46875 1.5542e-313 40.3711 0.49975 0 40.3721 0.498047 1.5542e-313         </DataArray>
      </Points>
      <Cells>
        <DataArray type="Int32" Name="connectivity" format="ascii">
0 1 2 3 4 5 6 7 8 9 10 11 12 13 14 15 16 17 18 19 20 21 22 23 24 25 26 27 28 29 30 31 32 33 34 35 36 37 38 39 40 41 42 43 44 45 46 47 48 49 50 51 52 53 54 55 56 57 58 59 60 61 62 63 64 65 66 67 68 69 70 71 72 73 74 75 76 77 78 79 80 81 82 83 84 85 86 87 88 89 90 91 92 93 94 95 96 97 98 99 100 101 102 103 104 105 106 107 108 109 110 111 112 113 114 115 116 117 118 119 120 121 122 123 124 125 126 127 128 129 130 131 132 133 134 135 136 137 138 139 140 141 142 143 144 145 146 147 148 149 150 151 152 153 154 155 156 157 158 159 160 161 162 163 164 165 166 167 168 169 170 171 172 173 174 175 176 177 178 179 180 181 182 183 184 185 186 187 188 189 190 191 192 193 194 195 196 197 198 199 200 201 202 203 204 205 206 207 208 209 210 211 212 213 214 215 216 217 218 219 220 221 222 223 224 225 226 227 228 229 230 231 232 233 234 235 236 237 238 239 240 241 242 243 244 245 246 247 248 249 250 251 252 253 254 255 256 257 258 259 260 261 262 263 264 265 266 267 268 269 270 271 272 273 274 275 276 277 278 279 280 281 282 283 284 285 286 287 288 289 290 291 292 293 294 295 296 297 298 299 300 301 302 303 304 305 306 307 308 309 310 311         </DataArray>
        <DataArray type="Int32" Name="offsets" format="ascii">
2 4 6 8 10 12 14 16 18 20 22 24 26 28 30 32 34 36 38 40 42 44 46 48 50 52 54 56 58 60 62 64 66 68 70 72 74 76 78 80 82 84 86 88 90 92 94 96 98 100 102 104 106 108 110 112 114 116 118 120 122 124 126 128 130 132 134 136 138 140 142 144 146 148 150 152 154 156 158 160 162 164 166 168 170 172 174 176 178 180 182 184 186 188 190 192 194 196 198 200 202 204 206 208 210 212 214 216 218 220 222 224 226 228 230 232 234 236 238 240 242 244 246 248 250 252 254 256 258 260 262 264 266 268 270 272 274 276 278 280 282 284 286 288 290 292 294 296 298 300 302 304 306 308 310 312         </DataArray>
        <DataArray type="UInt8" Name="types" format="ascii">
7 7 7 7 7 7 7 7 7 7 7 7 7 7 7 7 7 7 7 7 7 7 7 7 7 7 7 7 7 7 7 7 7 7 7 7 7 7 7 7 7 7 7 7 7 7 7 7 7 7 7 7 7 7 7 7 7 7 7 7 7 7 7 7 7 7 7 7 7 7 7 7 7 7 7 7 7 7 7 7 7 7 7 7 7 7 7 7 7 7 7 7 7 7 7 7 7 7 7 7 7 7 7 7 7 7 7 7 7 7 7 7 7 7 7 7 7 7 7 7 7 7 7 7 7 7 7 7 7 7 7 7 7 7 7 7 7 7 7 7 7 7 7 7 7 7 7 7 7 7 7 7 7 7 7 7 
        </DataArray>
      </Cells>
      <PointData>
      </PointData>
    </Piece>
  </UnstructuredGrid>
</VTKFile>
