<?xml version="1.0"?>
<VTKFile type="UnstructuredGrid" version="0.1" byte_order="LittleEndian">
  <UnstructuredGrid>
    <Piece NumberOfPoints="82" NumberOfCells="41">
			 <CellData Scalars="scalars">
				 <DataArray type="Float64" Name="f" format="ascii">
0.883754
0.306738
0.999911
0.704672
0.152249
0.978534
0.582991
0.0994247
0.962244
0.565813
0.116239
0.979446
0.650007
0.229005
0.000808549
0.830855
0.457615
0.113003
0.993437
0.777381
0.470578
0.185758
0.00482879
0.917879
0.680865
0.460459
0.261218
0.0828227
0.999994
0.924732
0.786939
0.669283
0.571829
0.494734
0.438108
0.401913
0.385994
0.39018
0.414363
0.458518
0.522735
				 </DataArray>
				 <DataArray type="Float64" NumberOfComponents="3" Name="u.x" format="ascii">
0.0968011 -0.988249 0.
0.0857036 -0.971955 0.
0.0342376 -0.945283 0.
0.0217535 -0.974186 0.
0.0117552 -0.936263 0.
-0.0545604 -0.915391 0.
-0.0663295 -0.923394 0.
-0.0691489 -0.884374 0.
-0.139953 -0.872627 0.
-0.150607 -0.866354 0.
-0.15088 -0.826293 0.
-0.225525 -0.81597 0.
-0.237183 -0.815593 0.
-0.244345 -0.757424 0.
-0.232995 -0.75056 0.
-0.321784 -0.753823 0.
-0.338897 -0.709366 0.
-0.341099 -0.662772 0.
-0.418569 -0.652085 0.
-0.430917 -0.643931 0.
-0.444463 -0.59602 0.
-0.447404 -0.547008 0.
-0.45244 -0.529509 0.
-0.526196 -0.521527 0.
-0.542743 -0.491282 0.
-0.549165 -0.446252 0.
-0.554071 -0.395819 0.
-0.555374 -0.34164 0.
-0.642669 -0.332135 0.
-0.656188 -0.308122 0.
-0.670661 -0.261094 0.
-0.680188 -0.215146 0.
-0.688203 -0.169649 0.
-0.69431 -0.122935 0.
-0.698601 -0.074204 0.
-0.700753 -0.0238367 0.
-0.700673 0.0268497 0.
-0.699338 0.0771436 0.
-0.697124 0.127476 0.
-0.694193 0.177916 0.
-0.690834 0.227565 0.
				 </DataArray>
			 </CellData>
      <Points>
        <DataArray type="Float32" Name="vertices" NumberOfComponents="3" format="ascii">
4.44873 0.46875 0 4.45312 0.471586 1.5542e-313 4.45312 0.471571 0 4.46043 0.476074 1.5542e-313 4.46032 0.476074 0 4.46045 0.476149 1.5542e-313 4.46045 0.476084 0 4.46777 0.48039 1.5542e-313 4.46777 0.480372 0 4.47317 0.483398 1.5542e-313 4.47307 0.483398 0 4.4751 0.484535 1.5542e-313 4.4751 0.484495 0 4.48242 0.48841 1.5542e-313 4.48242 0.488393 0 4.487 0.490723 1.5542e-313 4.48692 0.490723 0 4.48975 0.492158 1.5542e-313 4.48975 0.492134 0 4.49707 0.495672 1.5542e-313 4.49707 0.495657 0 4.50229 0.498047 1.5542e-313 4.5022 0.498047 0 4.50439 0.499052 1.5542e-313 4.50439 0.499023 0 4.51172 0.502197 1.5542e-313 4.51172 0.502195 0 4.51904 0.505192 1.5542e-313 4.51904 0.505188 0 4.51952 0.505371 1.5542e-313 4.51951 0.505371 0 4.52637 0.508017 1.5542e-313 4.52637 0.508016 0 4.53369 0.510672 1.5542e-313 4.53369 0.510665 0 4.53966 0.512695 1.5542e-313 4.53958 0.512695 0 4.54102 0.513185 1.5542e-313 4.54102 0.513162 0 4.54834 0.51549 1.5542e-313 4.54834 0.51549 0 4.55566 0.517656 1.5542e-313 4.55566 0.517656 0 4.56299 0.519662 1.5542e-313 4.56299 0.519658 0 4.56442 0.52002 1.5542e-313 4.5644 0.52002 0 4.57031 0.521511 1.5542e-313 4.57031 0.521511 0 4.57764 0.523203 1.5542e-313 4.57764 0.523203 0 4.58496 0.52474 1.5542e-313 4.58496 0.524739 0 4.59229 0.526122 1.5542e-313 4.59229 0.526121 0 4.59955 0.527344 1.5542e-313 4.59955 0.527344 0 4.59961 0.527354 1.5542e-313 4.59961 0.527353 0 4.60693 0.528437 1.5542e-313 4.60693 0.528437 0 4.61426 0.529372 1.5542e-313 4.61426 0.529372 0 4.62158 0.53016 1.5542e-313 4.62158 0.53016 0 4.62891 0.530799 1.5542e-313 4.62891 0.5308 0 4.63623 0.531289 1.5542e-313 4.63623 0.531289 0 4.64355 0.531629 1.5542e-313 4.64355 0.531629 0 4.65088 0.53182 1.5542e-313 4.65088 0.531819 0 4.6582 0.531862 1.5542e-313 4.6582 0.531862 0 4.66553 0.531758 1.5542e-313 4.66553 0.531758 0 4.67285 0.531508 1.5542e-313 4.67285 0.531508 0 4.68018 0.531111 1.5542e-313 4.68018 0.531112 0 4.6875 0.530567 1.5542e-313         </DataArray>
      </Points>
      <Cells>
        <DataArray type="Int32" Name="connectivity" format="ascii">
0 1 2 3 4 5 6 7 8 9 10 11 12 13 14 15 16 17 18 19 20 21 22 23 24 25 26 27 28 29 30 31 32 33 34 35 36 37 38 39 40 41 42 43 44 45 46 47 48 49 50 51 52 53 54 55 56 57 58 59 60 61 62 63 64 65 66 67 68 69 70 71 72 73 74 75 76 77 78 79 80 81         </DataArray>
        <DataArray type="Int32" Name="offsets" format="ascii">
2 4 6 8 10 12 14 16 18 20 22 24 26 28 30 32 34 36 38 40 42 44 46 48 50 52 54 56 58 60 62 64 66 68 70 72 74 76 78 80 82         </DataArray>
        <DataArray type="UInt8" Name="types" format="ascii">
7 7 7 7 7 7 7 7 7 7 7 7 7 7 7 7 7 7 7 7 7 7 7 7 7 7 7 7 7 7 7 7 7 7 7 7 7 7 7 7 7 
        </DataArray>
      </Cells>
      <PointData>
      </PointData>
    </Piece>
  </UnstructuredGrid>
</VTKFile>
