<?xml version="1.0"?>
<VTKFile type="UnstructuredGrid" version="0.1" byte_order="LittleEndian">
  <UnstructuredGrid>
    <Piece NumberOfPoints="82" NumberOfCells="41">
			 <CellData Scalars="scalars">
				 <DataArray type="Float64" Name="f" format="ascii">
0.359839
0.759746
0.807066
0.870069
0.949046
0.999786
0.0444704
0.253442
0.373712
0.502822
0.640047
0.783954
0.935677
0.000713447
0.591547
0.769756
0.953814
0.0441961
0.24524
0.467532
0.698645
0.930816
0.00745938
0.186499
0.443636
0.710067
0.957445
0.0283647
0.270492
0.563915
0.865844
0.000689269
0.179148
0.502154
0.835816
4.19213e-05
0.179654
0.532675
0.887024
0.00869666
0.26913
				 </DataArray>
				 <DataArray type="Float64" NumberOfComponents="3" Name="u.x" format="ascii">
2.70204 -0.0125357 0.
2.69302 -0.032355 0.
2.68159 -0.0425767 0.
2.68127 -0.0506341 0.
2.67741 -0.0596603 0.
2.68354 -0.069832 0.
2.70866 -0.0835686 0.
2.7228 -0.0880155 0.
2.72701 -0.112797 0.
2.69644 -0.125317 0.
2.68855 -0.128192 0.
2.69492 -0.123477 0.
2.676 -0.13447 0.
2.69366 -0.131787 0.
2.68452 -0.138172 0.
2.67857 -0.146077 0.
2.66941 -0.155962 0.
2.67459 -0.154447 0.
2.66554 -0.152944 0.
2.66433 -0.15815 0.
2.66816 -0.163997 0.
2.66304 -0.174043 0.
2.67073 -0.182516 0.
2.65902 -0.182518 0.
2.64709 -0.192074 0.
2.64155 -0.211202 0.
2.64106 -0.225569 0.
2.65574 -0.255768 0.
2.64353 -0.261861 0.
2.635 -0.28175 0.
2.61247 -0.291652 0.
2.62566 -0.304539 0.
2.60469 -0.311744 0.
2.5926 -0.319505 0.
2.57886 -0.330533 0.
2.59169 -0.352179 0.
2.56877 -0.358745 0.
2.56058 -0.371182 0.
2.54635 -0.382929 0.
2.55558 -0.419101 0.
2.54133 -0.420795 0.
				 </DataArray>
			 </CellData>
      <Points>
        <DataArray type="Float32" Name="vertices" NumberOfComponents="3" format="ascii">
16.7388 0 0 16.7393 0.0292969 6.21678e-313 16.7394 0.0292969 0 16.7399 0.0439453 3.10839e-313 16.7399 0.0439453 0 16.7407 0.0585938 3.10839e-313 16.7407 0.0585938 0 16.7418 0.0732422 3.10839e-313 16.7418 0.0732422 0 16.7431 0.0878906 3.10839e-313 16.7431 0.0878906 0 16.7432 0.0888316 3.10839e-313 16.7432 0.0889842 0 16.7446 0.102539 3.10839e-313 16.7446 0.102539 0 16.7454 0.109863 1.5542e-313 16.7454 0.109863 0 16.7464 0.117188 1.5542e-313 16.7464 0.117188 0 16.7473 0.124512 1.5542e-313 16.7473 0.124512 0 16.7484 0.131836 1.5542e-313 16.7484 0.131836 0 16.7494 0.13916 1.5542e-313 16.7494 0.13916 0 16.7505 0.145788 1.5542e-313 16.7505 0.145786 0 16.7506 0.146484 1.5542e-313 16.7506 0.146484 0 16.7531 0.161133 3.10839e-313 16.7531 0.161133 0 16.7558 0.175781 3.10839e-313 16.7558 0.175781 0 16.7578 0.185633 3.10839e-313 16.7578 0.185666 0 16.7588 0.19043 1.5542e-313 16.7588 0.19043 0 16.7604 0.197754 1.5542e-313 16.7604 0.197754 0 16.7621 0.205078 1.5542e-313 16.7621 0.205078 0 16.7638 0.212402 1.5542e-313 16.7638 0.212402 0 16.7651 0.217919 1.5542e-313 16.7651 0.217915 0 16.7656 0.219727 1.5542e-313 16.7656 0.219727 0 16.7674 0.227051 1.5542e-313 16.7674 0.227051 0 16.7693 0.234375 1.5542e-313 16.7693 0.234375 0 16.7713 0.241699 1.5542e-313 16.7713 0.241699 0 16.7725 0.245736 1.5542e-313 16.7725 0.245728 0 16.7734 0.249023 1.5542e-313 16.7734 0.249023 0 16.7755 0.256348 1.5542e-313 16.7755 0.256348 0 16.7777 0.263672 1.5542e-313 16.7777 0.263672 0 16.7798 0.270512 1.5542e-313 16.7798 0.270506 0 16.7799 0.270996 1.5542e-313 16.7799 0.270996 0 16.7823 0.27832 1.5542e-313 16.7823 0.27832 0 16.7847 0.285645 1.5542e-313 16.7847 0.285645 0 16.7871 0.292856 1.5542e-313 16.7871 0.292854 0 16.7871 0.292969 1.5542e-313 16.7871 0.292969 0 16.7897 0.300293 1.5542e-313 16.7897 0.300293 0 16.7923 0.307617 1.5542e-313 16.7923 0.307617 0 16.7944 0.313355 1.5542e-313 16.7944 0.31335 0 16.795 0.314941 1.5542e-313 16.795 0.314941 0 16.7978 0.322266 1.5542e-313         </DataArray>
      </Points>
      <Cells>
        <DataArray type="Int32" Name="connectivity" format="ascii">
0 1 2 3 4 5 6 7 8 9 10 11 12 13 14 15 16 17 18 19 20 21 22 23 24 25 26 27 28 29 30 31 32 33 34 35 36 37 38 39 40 41 42 43 44 45 46 47 48 49 50 51 52 53 54 55 56 57 58 59 60 61 62 63 64 65 66 67 68 69 70 71 72 73 74 75 76 77 78 79 80 81         </DataArray>
        <DataArray type="Int32" Name="offsets" format="ascii">
2 4 6 8 10 12 14 16 18 20 22 24 26 28 30 32 34 36 38 40 42 44 46 48 50 52 54 56 58 60 62 64 66 68 70 72 74 76 78 80 82         </DataArray>
        <DataArray type="UInt8" Name="types" format="ascii">
7 7 7 7 7 7 7 7 7 7 7 7 7 7 7 7 7 7 7 7 7 7 7 7 7 7 7 7 7 7 7 7 7 7 7 7 7 7 7 7 7 
        </DataArray>
      </Cells>
      <PointData>
      </PointData>
    </Piece>
  </UnstructuredGrid>
</VTKFile>
