<?xml version="1.0"?>
<VTKFile type="UnstructuredGrid" version="0.1" byte_order="LittleEndian">
  <UnstructuredGrid>
    <Piece NumberOfPoints="204" NumberOfCells="102">
			 <CellData Scalars="scalars">
				 <DataArray type="Float64" Name="f" format="ascii">
0.342399
0.351615
0.369454
0.394377
0.425475
0.463867
0.511556
0.568099
0.632076
0.705697
0.414973
0.783624
0.75092
0.894097
0.996998
0.0340044
0.190361
0.3648
0.547163
0.737944
0.9336
0.00380615
0.145669
0.362376
0.587699
0.821948
0.993118
0.0727471
0.31823
0.579663
0.84954
0.999665
0.128661
0.416192
0.71337
0.970227
0.0494601
0.335274
0.661041
0.955815
0.0413274
0.343216
0.699273
0.980298
0.0848122
0.440494
0.825892
0.000636607
0.223272
0.63051
0.968401
0.0808092
0.478452
0.896535
0.0230981
0.372198
0.83132
0.00560648
0.313378
0.79911
0.00243715
0.30247
0.810756
0.00580849
0.344794
0.863001
0.0241931
0.442903
0.934011
0.0809119
0.601253
0.990894
0.215699
0.810959
0.016505
0.46612
0.966104
0.160874
0.789336
0.0174542
0.510242
0.986917
0.253362
0.898146
0.0935761
0.751959
0.0188037
0.58496
2.08852e-06
0.999897
0.434396
0.987944
0.32486
0.968253
0.267422
0.95546
0.25423
0.956677
0.278682
0.973285
0.352796
0.993578
				 </DataArray>
				 <DataArray type="Float64" NumberOfComponents="3" Name="u.x" format="ascii">
2.78185 -0.0114181 0.
2.76262 -0.0254118 0.
2.73634 -0.0255085 0.
2.7188 -0.0135658 0.
2.72506 -0.0046186 0.
2.75286 -0.0100095 0.
2.77105 -0.0291068 0.
2.74543 -0.0476498 0.
2.74118 -0.0478218 0.
2.75612 -0.0592641 0.
2.74449 -0.0762995 0.
2.7172 -0.0792891 0.
2.71783 -0.0901569 0.
2.71226 -0.0874529 0.
2.71846 -0.0903047 0.
2.75195 -0.094602 0.
2.68363 -0.086073 0.
2.71411 -0.0739586 0.
2.71933 -0.0788892 0.
2.72401 -0.085773 0.
2.72264 -0.0979104 0.
2.7268 -0.128713 0.
2.71796 -0.125923 0.
2.71023 -0.130575 0.
2.70881 -0.138288 0.
2.70695 -0.147893 0.
2.69641 -0.156336 0.
2.70629 -0.173464 0.
2.69957 -0.181436 0.
2.69421 -0.185012 0.
2.68935 -0.194271 0.
2.67687 -0.199865 0.
2.68437 -0.213835 0.
2.67887 -0.21743 0.
2.67656 -0.223161 0.
2.66542 -0.234254 0.
2.67756 -0.258607 0.
2.66322 -0.262763 0.
2.65022 -0.272949 0.
2.63308 -0.282046 0.
2.64245 -0.303059 0.
2.63187 -0.307758 0.
2.63051 -0.319229 0.
2.60709 -0.331398 0.
2.61816 -0.355347 0.
2.60597 -0.362868 0.
2.59731 -0.378051 0.
2.60658 -0.423759 0.
2.58204 -0.42683 0.
2.57649 -0.436384 0.
2.53848 -0.452886 0.
2.5526 -0.487169 0.
2.52899 -0.495045 0.
2.50514 -0.510793 0.
2.51619 -0.558845 0.
2.48703 -0.560715 0.
2.47219 -0.575577 0.
2.47936 -0.629741 0.
2.43273 -0.629334 0.
2.4233 -0.642471 0.
2.42448 -0.711472 0.
2.38038 -0.70169 0.
2.3754 -0.719512 0.
2.38084 -0.803185 0.
2.32178 -0.795056 0.
2.29547 -0.807891 0.
2.29859 -0.879799 0.
2.24452 -0.872751 0.
2.19861 -0.889547 0.
2.2106 -0.973179 0.
2.18742 -0.977655 0.
2.07547 -0.995252 0.
2.09597 -1.06385 0.
2.07184 -1.0784 0.
2.06834 -1.18629 0.
1.97978 -1.16712 0.
1.89668 -1.16853 0.
1.90684 -1.26822 0.
1.88434 -1.27823 0.
1.87921 -1.41929 0.
1.73754 -1.38728 0.
1.64773 -1.36287 0.
1.63968 -1.47355 0.
1.59516 -1.4558 0.
1.57681 -1.61903 0.
1.48609 -1.58117 0.
1.46122 -1.70804 0.
1.32787 -1.65516 0.
1.31648 -1.76881 0.
1.2977 -1.57731 0.
1.24963 -1.73556 0.
1.21324 -1.64938 0.
1.15837 -1.80792 0.
1.07433 -1.71515 0.
1.01311 -1.83324 0.
0.939707 -1.76151 0.
0.884692 -1.90456 0.
0.781509 -1.81217 0.
0.711053 -1.96932 0.
0.612593 -1.86121 0.
0.523181 -1.97166 0.
0.431701 -1.85503 0.
				 </DataArray>
			 </CellData>
      <Points>
        <DataArray type="Float32" Name="vertices" NumberOfComponents="3" format="ascii">
23.689 0 0 23.689 0.00732422 1.5542e-313 23.689 0.00732422 0 23.6891 0.0146484 1.5542e-313 23.6892 0.0146484 0 23.6893 0.0219727 1.5542e-313 23.6893 0.0219727 0 23.6895 0.0292969 1.5542e-313 23.6895 0.0292969 0 23.6898 0.0366211 1.5542e-313 23.6898 0.0366211 0 23.6901 0.0439453 1.5542e-313 23.6901 0.0439453 0 23.6905 0.0512695 1.5542e-313 23.6905 0.0512695 0 23.6909 0.0585938 1.5542e-313 23.6909 0.0585938 0 23.6914 0.065918 1.5542e-313 23.6914 0.065918 0 23.692 0.0732422 1.5542e-313 23.692 0.0732422 0 23.6932 0.0878906 3.10839e-313 23.6932 0.0878906 0 23.6965 0.117188 6.21678e-313 23.6965 0.117188 0 23.6985 0.131836 3.10839e-313 23.6985 0.131836 0 23.7007 0.146484 3.10839e-313 23.7007 0.146484 0 23.7012 0.149262 3.10839e-313 23.7012 0.149082 0 23.7019 0.153809 1.5542e-313 23.7019 0.153809 0 23.7032 0.161133 1.5542e-313 23.7032 0.161133 0 23.7045 0.168457 1.5542e-313 23.7045 0.168457 0 23.7059 0.175781 1.5542e-313 23.7059 0.175781 0 23.7073 0.183105 1.5542e-313 23.7073 0.183105 0 23.7085 0.189017 1.5542e-313 23.7085 0.189014 0 23.7088 0.19043 1.5542e-313 23.7088 0.19043 0 23.7103 0.197754 1.5542e-313 23.7103 0.197754 0 23.712 0.205078 1.5542e-313 23.712 0.205078 0 23.7136 0.212402 1.5542e-313 23.7136 0.212402 0 23.7154 0.219727 1.5542e-313 23.7154 0.219727 0 23.7158 0.221452 1.5542e-313 23.7158 0.221442 0 23.7172 0.227051 1.5542e-313 23.7172 0.227051 0 23.7191 0.234375 1.5542e-313 23.7191 0.234375 0 23.721 0.241699 1.5542e-313 23.721 0.241699 0 23.723 0.249023 1.5542e-313 23.723 0.249023 0 23.7231 0.249379 1.5542e-313 23.7231 0.249368 0 23.7251 0.256348 1.5542e-313 23.7251 0.256348 0 23.7273 0.263672 1.5542e-313 23.7273 0.263672 0 23.7295 0.270996 1.5542e-313 23.7295 0.270996 0 23.7305 0.274201 1.5542e-313 23.7305 0.274189 0 23.7318 0.27832 1.5542e-313 23.7318 0.27832 0 23.7341 0.285645 1.5542e-313 23.7341 0.285645 0 23.7365 0.292969 1.5542e-313 23.7365 0.292969 0 23.7378 0.296697 1.5542e-313 23.7378 0.296687 0 23.739 0.300293 1.5542e-313 23.739 0.300293 0 23.7416 0.307617 1.5542e-313 23.7416 0.307617 0 23.7442 0.314941 1.5542e-313 23.7442 0.314941 0 23.7451 0.31733 1.5542e-313 23.7451 0.317311 0 23.747 0.322266 1.5542e-313 23.7469 0.322266 0 23.7497 0.32959 1.5542e-313 23.7497 0.32959 0 23.7524 0.336498 1.5542e-313 23.7524 0.336496 0 23.7526 0.336914 1.5542e-313 23.7526 0.336914 0 23.7555 0.344238 1.5542e-313 23.7555 0.344238 0 23.7586 0.351562 1.5542e-313 23.7586 0.351562 0 23.7598 0.35439 1.5542e-313 23.7598 0.354365 0 23.7617 0.358887 1.5542e-313 23.7617 0.358887 0 23.7649 0.366211 1.5542e-313 23.7649 0.366211 0 23.7671 0.371195 1.5542e-313 23.7671 0.37118 0 23.7681 0.373535 1.5542e-313 23.7681 0.373535 0 23.7715 0.380859 1.5542e-313 23.7715 0.380859 0 23.7744 0.387061 1.5542e-313 23.7744 0.387053 0 23.7749 0.388184 1.5542e-313 23.7749 0.388184 0 23.7785 0.395508 1.5542e-313 23.7785 0.395508 0 23.7817 0.402109 1.5542e-313 23.7817 0.402105 0 23.7821 0.402832 1.5542e-313 23.7821 0.402832 0 23.7858 0.410156 1.5542e-313 23.7858 0.410156 0 23.7891 0.416398 1.5542e-313 23.7891 0.416387 0 23.7896 0.41748 1.5542e-313 23.7896 0.41748 0 23.7935 0.424805 1.5542e-313 23.7935 0.424805 0 23.7964 0.429979 1.5542e-313 23.7964 0.429955 0 23.7976 0.432129 1.5542e-313 23.7976 0.432129 0 23.8017 0.439453 1.5542e-313 23.8017 0.439453 0 23.8037 0.442949 1.5542e-313 23.8037 0.442906 0 23.806 0.446777 1.5542e-313 23.8059 0.446777 0 23.8103 0.454102 1.5542e-313 23.8103 0.454102 0 23.811 0.455372 1.5542e-313 23.811 0.455282 0 23.8148 0.461426 1.5542e-313 23.8148 0.461426 0 23.8184 0.467101 1.5542e-313 23.8184 0.467067 0 23.8194 0.46875 1.5542e-313 23.8194 0.46875 0 23.8242 0.476074 1.5542e-313 23.8241 0.476074 0 23.8257 0.478419 1.5542e-313 23.8257 0.478324 0 23.8291 0.483398 1.5542e-313 23.8291 0.483398 0 23.833 0.489115 1.5542e-313 23.833 0.489062 0 23.8341 0.490723 1.5542e-313 23.8341 0.490723 0 23.8394 0.498047 1.5542e-313 23.8393 0.498047 0 23.8403 0.49944 1.5542e-313 23.8403 0.499313 0 23.8448 0.505371 1.5542e-313 23.8448 0.505371 0 23.8477 0.509173 1.5542e-313 23.8477 0.509058 0 23.8504 0.512695 1.5542e-313 23.8504 0.512695 0 23.855 0.518475 1.5542e-313 23.855 0.518431 0 23.8563 0.52002 1.5542e-313 23.8562 0.52002 0 23.8623 0.527336 1.5542e-313 23.8623 0.527327 0 23.8623 0.527344 1.5542e-313 23.8622 0.527344 0 23.8623 0.527458 1.5542e-313 23.8623 0.527344 0 23.8687 0.534668 1.5542e-313 23.8686 0.534668 0 23.8696 0.535879 1.5542e-313 23.8696 0.535771 0 23.8752 0.541992 1.5542e-313 23.8752 0.541992 0 23.877 0.543908 1.5542e-313 23.877 0.543805 0 23.8822 0.549316 1.5542e-313 23.8821 0.549316 0 23.8843 0.551524 1.5542e-313 23.8843 0.55144 0 23.8895 0.556641 1.5542e-313 23.8894 0.556641 0 23.8916 0.55876 1.5542e-313 23.8916 0.558694 0 23.8973 0.563965 1.5542e-313 23.8972 0.563965 0 23.8989 0.56558 1.5542e-313 23.8989 0.565518 0 23.9055 0.571289 1.5542e-313 23.9054 0.571289 0 23.9062 0.572057 1.5542e-313         </DataArray>
      </Points>
      <Cells>
        <DataArray type="Int32" Name="connectivity" format="ascii">
0 1 2 3 4 5 6 7 8 9 10 11 12 13 14 15 16 17 18 19 20 21 22 23 24 25 26 27 28 29 30 31 32 33 34 35 36 37 38 39 40 41 42 43 44 45 46 47 48 49 50 51 52 53 54 55 56 57 58 59 60 61 62 63 64 65 66 67 68 69 70 71 72 73 74 75 76 77 78 79 80 81 82 83 84 85 86 87 88 89 90 91 92 93 94 95 96 97 98 99 100 101 102 103 104 105 106 107 108 109 110 111 112 113 114 115 116 117 118 119 120 121 122 123 124 125 126 127 128 129 130 131 132 133 134 135 136 137 138 139 140 141 142 143 144 145 146 147 148 149 150 151 152 153 154 155 156 157 158 159 160 161 162 163 164 165 166 167 168 169 170 171 172 173 174 175 176 177 178 179 180 181 182 183 184 185 186 187 188 189 190 191 192 193 194 195 196 197 198 199 200 201 202 203         </DataArray>
        <DataArray type="Int32" Name="offsets" format="ascii">
2 4 6 8 10 12 14 16 18 20 22 24 26 28 30 32 34 36 38 40 42 44 46 48 50 52 54 56 58 60 62 64 66 68 70 72 74 76 78 80 82 84 86 88 90 92 94 96 98 100 102 104 106 108 110 112 114 116 118 120 122 124 126 128 130 132 134 136 138 140 142 144 146 148 150 152 154 156 158 160 162 164 166 168 170 172 174 176 178 180 182 184 186 188 190 192 194 196 198 200 202 204         </DataArray>
        <DataArray type="UInt8" Name="types" format="ascii">
7 7 7 7 7 7 7 7 7 7 7 7 7 7 7 7 7 7 7 7 7 7 7 7 7 7 7 7 7 7 7 7 7 7 7 7 7 7 7 7 7 7 7 7 7 7 7 7 7 7 7 7 7 7 7 7 7 7 7 7 7 7 7 7 7 7 7 7 7 7 7 7 7 7 7 7 7 7 7 7 7 7 7 7 7 7 7 7 7 7 7 7 7 7 7 7 7 7 7 7 7 7 
        </DataArray>
      </Cells>
      <PointData>
      </PointData>
    </Piece>
  </UnstructuredGrid>
</VTKFile>
