<?xml version="1.0"?>
<VTKFile type="UnstructuredGrid" version="0.1" byte_order="LittleEndian">
  <UnstructuredGrid>
    <Piece NumberOfPoints="98" NumberOfCells="49">
			 <CellData Scalars="scalars">
				 <DataArray type="Float64" Name="f" format="ascii">
0.00556525
0.745274
0.137131
0.959168
0.4685
0.0226466
0.843955
0.2893
0.999996
4.73297e-05
0.736293
0.211032
0.090056
0.566369
0.130815
0.974464
0.668022
0.996817
0.70283
0.221643
0.999572
0.761911
0.324727
0.0157803
0.893072
0.513659
0.14198
0.996918
0.78414
0.449588
0.135708
0.999319
0.839919
0.564068
0.306964
0.0733034
0.994986
0.847699
0.645176
0.460581
0.293848
0.144898
0.0228128
0.990802
0.899824
0.803447
0.724353
0.662485
0.617831
				 </DataArray>
				 <DataArray type="Float64" NumberOfComponents="3" Name="u.x" format="ascii">
0.175571 -0.731736 0.
0.116689 -0.736393 0.
0.114154 -0.713812 0.
0.0703707 -0.700949 0.
0.0668773 -0.702106 0.
0.0776664 -0.687351 0.
0.0249886 -0.687164 0.
0.0256502 -0.665038 0.
-0.017858 -0.655149 0.
0.0409115 -0.66555 0.
-0.0197659 -0.674182 0.
-0.0246243 -0.634603 0.
-0.0511252 0.681829 0.
-0.0627167 0.713315 0.
-0.00789707 0.709875 0.
-0.079804 0.712102 0.
-0.0168846 0.745706 0.
-0.0755749 -0.625761 0.
-0.0763443 -0.635296 0.
-0.0805133 -0.591892 0.
-0.127316 -0.586959 0.
-0.126392 -0.595556 0.
-0.132146 -0.557076 0.
-0.117071 -0.540389 0.
-0.181031 -0.545911 0.
-0.185465 -0.524648 0.
-0.181553 -0.488172 0.
-0.237449 -0.488413 0.
-0.240266 -0.489406 0.
-0.244826 -0.453558 0.
-0.241547 -0.411418 0.
-0.2981 -0.4144 0.
-0.299419 -0.408642 0.
-0.304409 -0.379475 0.
-0.303801 -0.349393 0.
-0.30063 -0.321235 0.
-0.356639 -0.319899 0.
-0.362124 -0.309415 0.
-0.369274 -0.280539 0.
-0.372112 -0.250457 0.
-0.372741 -0.219357 0.
-0.371749 -0.187725 0.
-0.368826 -0.161186 0.
-0.428809 -0.159482 0.
-0.434696 -0.139145 0.
-0.440209 -0.112334 0.
-0.444682 -0.0859045 0.
-0.448388 -0.0585599 0.
-0.451188 -0.0295728 0.
				 </DataArray>
			 </CellData>
      <Points>
        <DataArray type="Float32" Name="vertices" NumberOfComponents="3" format="ascii">
3.75 0.438826 0 3.75095 0.439453 1.5542e-313 3.75093 0.439453 0 3.75732 0.443727 1.5542e-313 3.75732 0.443706 0 3.76211 0.446777 1.5542e-313 3.76203 0.446777 0 3.76465 0.44845 1.5542e-313 3.76465 0.448419 0 3.77197 0.452922 1.5542e-313 3.77197 0.452905 0 3.774 0.454102 1.5542e-313 3.77397 0.454102 0 3.7793 0.457243 1.5542e-313 3.7793 0.457237 0 3.78662 0.461376 1.5542e-313 3.78659 0.461426 0 3.78662 0.461442 1.5542e-313 3.78662 0.461373 0 3.78672 0.461426 1.5542e-313 3.78671 0.461426 0 3.79395 0.465337 1.5542e-313 3.79395 0.465329 0 3.80056 0.46875 1.5542e-313 4.19678 0.466543 0 4.1924 0.46875 1.5542e-313 4.19678 0.466532 0 4.2041 0.462671 1.5542e-313 4.21143 0.458645 0 4.20638 0.461426 1.5542e-313 4.2041 0.462654 0 4.20633 0.461426 1.5542e-313 4.21143 0.458638 0 4.21875 0.454428 1.5542e-313 3.80046 0.46875 0 3.80127 0.46917 1.5542e-313 3.80127 0.46912 0 3.80859 0.472733 1.5542e-313 3.80859 0.472729 0 3.8157 0.476074 1.5542e-313 3.81561 0.476074 0 3.81592 0.476221 1.5542e-313 3.81592 0.476177 0 3.82324 0.47946 1.5542e-313 3.82324 0.479458 0 3.83057 0.482582 1.5542e-313 3.83057 0.48257 0 3.83261 0.483398 1.5542e-313 3.83257 0.483398 0 3.83789 0.485555 1.5542e-313 3.83789 0.485551 0 3.84521 0.48837 1.5542e-313 3.84521 0.488365 0 3.85168 0.490723 1.5542e-313 3.85159 0.490723 0 3.85254 0.49107 1.5542e-313 3.85254 0.491041 0 3.85986 0.493566 1.5542e-313 3.85986 0.493565 0 3.86719 0.495943 1.5542e-313 3.86719 0.49594 0 3.8741 0.498047 1.5542e-313 3.87402 0.498047 0 3.87451 0.498196 1.5542e-313 3.87451 0.498174 0 3.88184 0.500265 1.5542e-313 3.88184 0.500264 0 3.88916 0.502216 1.5542e-313 3.88916 0.502215 0 3.89648 0.504031 1.5542e-313 3.89648 0.504027 0 3.90234 0.505371 1.5542e-313 3.90228 0.505371 0 3.90381 0.505723 1.5542e-313 3.90381 0.505712 0 3.91113 0.507261 1.5542e-313 3.91113 0.507261 0 3.91846 0.508679 1.5542e-313 3.91846 0.508679 0 3.92578 0.509965 1.5542e-313 3.92578 0.509965 0 3.93311 0.511121 1.5542e-313 3.93311 0.511121 0 3.94043 0.512147 1.5542e-313 3.94043 0.512148 0 3.9449 0.512695 1.5542e-313 3.94492 0.512695 0 3.94775 0.513043 1.5542e-313 3.94775 0.513044 0 3.95508 0.513814 1.5542e-313 3.95508 0.513814 0 3.9624 0.514456 1.5542e-313 3.9624 0.514456 0 3.96973 0.514972 1.5542e-313 3.96973 0.514972 0 3.97705 0.515362 1.5542e-313 3.97705 0.515362 0 3.98438 0.515626 1.5542e-313         </DataArray>
      </Points>
      <Cells>
        <DataArray type="Int32" Name="connectivity" format="ascii">
0 1 2 3 4 5 6 7 8 9 10 11 12 13 14 15 16 17 18 19 20 21 22 23 24 25 26 27 28 29 30 31 32 33 34 35 36 37 38 39 40 41 42 43 44 45 46 47 48 49 50 51 52 53 54 55 56 57 58 59 60 61 62 63 64 65 66 67 68 69 70 71 72 73 74 75 76 77 78 79 80 81 82 83 84 85 86 87 88 89 90 91 92 93 94 95 96 97         </DataArray>
        <DataArray type="Int32" Name="offsets" format="ascii">
2 4 6 8 10 12 14 16 18 20 22 24 26 28 30 32 34 36 38 40 42 44 46 48 50 52 54 56 58 60 62 64 66 68 70 72 74 76 78 80 82 84 86 88 90 92 94 96 98         </DataArray>
        <DataArray type="UInt8" Name="types" format="ascii">
7 7 7 7 7 7 7 7 7 7 7 7 7 7 7 7 7 7 7 7 7 7 7 7 7 7 7 7 7 7 7 7 7 7 7 7 7 7 7 7 7 7 7 7 7 7 7 7 7 
        </DataArray>
      </Cells>
      <PointData>
      </PointData>
    </Piece>
  </UnstructuredGrid>
</VTKFile>
