<?xml version="1.0"?>
<VTKFile type="UnstructuredGrid" version="0.1" byte_order="LittleEndian">
  <UnstructuredGrid>
    <Piece NumberOfPoints="172" NumberOfCells="86">
			 <CellData Scalars="scalars">
				 <DataArray type="Float64" Name="f" format="ascii">
0.637773
0.648949
0.671257
0.704348
0.747713
0.800963
0.864165
0.938075
0.997328
0.0262867
0.120859
0.22865
0.346129
0.47345
0.610995
0.758879
0.917309
0.999997
0.0866592
0.266825
0.778884
0.96713
0.0974175
0.333577
0.583723
0.845976
0.999306
0.121006
0.404172
0.70206
0.966719
0.0469158
0.33576
0.669956
0.965035
0.0540327
0.383437
0.759625
0.996451
0.151465
0.549264
0.927202
0.0375246
0.395622
0.835722
0.00511617
0.302382
0.778872
0.000515082
0.27308
0.781055
0.0785369
0.84038
0.0164636
0.420703
0.927696
0.0777864
0.610253
0.993993
0.242485
0.848174
0.00855666
0.447834
0.885272
0.0717195
0.693029
0.00369531
0.463853
0.98578
0.274602
0.931582
0.153883
0.859517
0.0849474
0.791302
0.0495926
0.742711
0.0342781
0.720696
0.0320284
0.728913
0.0415597
0.769721
0.069554
0.836223
0.128436
				 </DataArray>
				 <DataArray type="Float64" NumberOfComponents="3" Name="u.x" format="ascii">
2.14043 -0.0252444 0.
2.12813 -0.0647816 0.
2.11439 -0.101874 0.
2.1016 -0.121924 0.
2.09137 -0.147077 0.
2.08274 -0.167092 0.
2.07244 -0.17981 0.
2.06567 -0.186603 0.
2.06441 -0.198819 0.
2.10482 -0.222604 0.
2.09517 -0.238385 0.
2.0832 -0.247475 0.
2.0703 -0.252774 0.
2.07091 -0.266295 0.
2.06623 -0.2737 0.
2.07137 -0.289476 0.
2.04268 -0.310138 0.
2.01724 -0.317128 0.
2.04165 -0.284582 0.
2.02967 -0.309619 0.
1.99524 -0.337135 0.
1.96497 -0.361327 0.
1.99556 -0.376958 0.
2.02518 -0.401738 0.
1.99789 -0.436914 0.
1.96156 -0.450062 0.
1.94295 -0.457856 0.
1.97341 -0.447139 0.
1.95604 -0.480061 0.
1.93685 -0.497004 0.
1.92164 -0.513937 0.
1.96013 -0.530913 0.
1.92777 -0.557513 0.
1.90272 -0.567587 0.
1.87292 -0.588976 0.
1.90223 -0.618083 0.
1.8612 -0.63204 0.
1.85992 -0.646571 0.
1.79843 -0.650216 0.
1.81689 -0.64796 0.
1.77484 -0.651341 0.
1.77284 -0.66963 0.
1.80616 -0.700718 0.
1.76666 -0.710178 0.
1.74611 -0.724437 0.
1.7711 -0.76211 0.
1.71633 -0.769738 0.
1.70421 -0.775411 0.
1.7169 -0.813755 0.
1.66782 -0.823603 0.
1.65936 -0.830519 0.
1.65529 -0.867508 0.
1.60544 -0.873284 0.
1.64269 -0.899348 0.
1.56145 -0.922782 0.
1.49711 -0.925529 0.
1.51476 -0.943057 0.
1.48155 -0.955176 0.
1.40329 -0.957515 0.
1.44053 -1.005 0.
1.41545 -1.01967 0.
1.46147 -1.06115 0.
1.33674 -1.0613 0.
1.26365 -1.08316 0.
1.28402 -1.13328 0.
1.23051 -1.13585 0.
1.23876 -1.16895 0.
1.14345 -1.16498 0.
1.08524 -1.15372 0.
1.09456 -1.20039 0.
1.0393 -1.18848 0.
1.0462 -1.25208 0.
0.972492 -1.2392 0.
0.976184 -1.29083 0.
0.889095 -1.27254 0.
0.892932 -1.30008 0.
0.812006 -1.27728 0.
0.807201 -1.27696 0.
0.77261 -1.27241 0.
0.775395 -1.32564 0.
0.693853 -1.29997 0.
0.686471 -1.34769 0.
0.609683 -1.32293 0.
0.595159 -1.3499 0.
0.530573 -1.32132 0.
0.512722 -1.3543 0.
				 </DataArray>
			 </CellData>
      <Points>
        <DataArray type="Float32" Name="vertices" NumberOfComponents="3" format="ascii">
5.3733 0 0 5.37334 0.00732422 1.5542e-313 5.37334 0.00732422 0 5.37347 0.0146484 1.5542e-313 5.37347 0.0146484 0 5.37367 0.0219727 1.5542e-313 5.37367 0.0219727 0 5.37395 0.0292969 1.5542e-313 5.37395 0.0292969 0 5.37431 0.0366211 1.5542e-313 5.37431 0.0366211 0 5.37473 0.0439453 1.5542e-313 5.37473 0.0439453 0 5.37523 0.0512695 1.5542e-313 5.37523 0.0512695 0 5.37581 0.0585938 1.5542e-313 5.37581 0.0585938 0 5.37598 0.0603648 1.5542e-313 5.37598 0.0603629 0 5.37648 0.065918 1.5542e-313 5.37649 0.065918 0 5.37724 0.0732422 1.5542e-313 5.37724 0.0732422 0 5.37806 0.0805664 1.5542e-313 5.37806 0.0805664 0 5.37896 0.0878906 1.5542e-313 5.37896 0.0878906 0 5.37993 0.0952148 1.5542e-313 5.37993 0.0952148 0 5.38097 0.102539 1.5542e-313 5.38097 0.102539 0 5.3821 0.109863 1.5542e-313 5.38209 0.109863 0 5.3833 0.117188 1.5542e-313 5.38329 0.117188 0 5.3833 0.117232 1.5542e-313 5.3833 0.117218 0 5.38458 0.124512 1.5542e-313 5.38458 0.124512 0 5.38593 0.131836 1.5542e-313 5.38591 0.131836 0 5.38886 0.146484 3.10839e-313 5.38884 0.146484 0 5.39062 0.154398 3.10839e-313 5.39062 0.154423 0 5.39218 0.161133 1.5542e-313 5.39218 0.161133 0 5.39396 0.168457 1.5542e-313 5.39396 0.168457 0 5.39584 0.175781 1.5542e-313 5.39584 0.175781 0 5.3978 0.183105 1.5542e-313 5.39781 0.183105 0 5.39795 0.183622 1.5542e-313 5.39795 0.183609 0 5.39985 0.19043 1.5542e-313 5.39984 0.19043 0 5.40197 0.197754 1.5542e-313 5.40198 0.197754 0 5.40421 0.205078 1.5542e-313 5.40421 0.205078 0 5.40527 0.208435 1.5542e-313 5.40527 0.208417 0 5.40654 0.212402 1.5542e-313 5.40653 0.212402 0 5.40893 0.219727 1.5542e-313 5.40893 0.219727 0 5.41143 0.227051 1.5542e-313 5.41144 0.227051 0 5.4126 0.230294 1.5542e-313 5.4126 0.230344 0 5.41404 0.234375 1.5542e-313 5.41405 0.234375 0 5.41676 0.241699 1.5542e-313 5.41676 0.241699 0 5.41956 0.249023 1.5542e-313 5.41953 0.249023 0 5.41992 0.250005 1.5542e-313 5.41992 0.249932 0 5.42245 0.256348 1.5542e-313 5.42245 0.256348 0 5.42544 0.263672 1.5542e-313 5.42543 0.263672 0 5.42725 0.267968 1.5542e-313 5.42725 0.267912 0 5.42855 0.270996 1.5542e-313 5.42854 0.270996 0 5.43175 0.27832 1.5542e-313 5.43174 0.27832 0 5.43457 0.284555 1.5542e-313 5.43457 0.284544 0 5.43507 0.285645 1.5542e-313 5.43507 0.285645 0 5.4385 0.292969 1.5542e-313 5.4385 0.292969 0 5.44189 0.29996 1.5542e-313 5.44189 0.299956 0 5.44206 0.300293 1.5542e-313 5.44206 0.300293 0 5.44573 0.307617 1.5542e-313 5.44573 0.307617 0 5.44922 0.314342 1.5542e-313 5.44922 0.314277 0 5.45344 0.322266 3.10839e-313 5.45346 0.322266 0 5.45654 0.327824 1.5542e-313 5.45654 0.327805 0 5.45753 0.32959 1.5542e-313 5.45752 0.32959 0 5.46173 0.336914 1.5542e-313 5.46172 0.336914 0 5.46387 0.340526 1.5542e-313 5.46387 0.340492 0 5.4661 0.344238 1.5542e-313 5.46608 0.344238 0 5.47059 0.351562 1.5542e-313 5.47056 0.351562 0 5.47119 0.352583 1.5542e-313 5.47119 0.352491 0 5.47526 0.358887 1.5542e-313 5.47525 0.358887 0 5.47852 0.363867 1.5542e-313 5.47852 0.363812 0 5.48005 0.366211 3.10839e-313 5.48001 0.366211 0 5.49014 0.380859 3.10839e-313 5.49018 0.380859 0 5.49316 0.384978 1.5542e-313 5.49316 0.384923 0 5.49552 0.388184 1.5542e-313 5.49551 0.388184 0 5.50049 0.394795 1.5542e-313 5.50049 0.394783 0 5.50104 0.395508 1.5542e-313 5.50102 0.395508 0 5.50675 0.402832 1.5542e-313 5.50671 0.402832 0 5.50781 0.404217 1.5542e-313 5.50781 0.404128 0 5.5127 0.410156 1.5542e-313 5.51268 0.410156 0 5.51514 0.41314 1.5542e-313 5.51514 0.413034 0 5.51885 0.41748 1.5542e-313 5.51886 0.41748 0 5.52246 0.421669 1.5542e-313 5.52246 0.421582 0 5.52529 0.424805 1.5542e-313 5.5253 0.424805 0 5.52979 0.429795 1.5542e-313 5.52979 0.42973 0 5.532 0.432129 1.5542e-313 5.53201 0.432129 0 5.53711 0.43754 1.5542e-313 5.53711 0.437504 0 5.539 0.439453 1.5542e-313 5.53899 0.439453 0 5.54443 0.444957 1.5542e-313 5.54443 0.444935 0 5.5463 0.446777 1.5542e-313 5.54626 0.446777 0 5.55176 0.452063 1.5542e-313 5.55176 0.452055 0 5.55394 0.454102 1.5542e-313 5.55388 0.454102 0 5.55908 0.458847 1.5542e-313 5.55908 0.45885 0 5.56198 0.461426 1.5542e-313 5.5619 0.461426 0 5.56641 0.465327 1.5542e-313 5.56641 0.465352 0 5.57046 0.46875 1.5542e-313         </DataArray>
      </Points>
      <Cells>
        <DataArray type="Int32" Name="connectivity" format="ascii">
0 1 2 3 4 5 6 7 8 9 10 11 12 13 14 15 16 17 18 19 20 21 22 23 24 25 26 27 28 29 30 31 32 33 34 35 36 37 38 39 40 41 42 43 44 45 46 47 48 49 50 51 52 53 54 55 56 57 58 59 60 61 62 63 64 65 66 67 68 69 70 71 72 73 74 75 76 77 78 79 80 81 82 83 84 85 86 87 88 89 90 91 92 93 94 95 96 97 98 99 100 101 102 103 104 105 106 107 108 109 110 111 112 113 114 115 116 117 118 119 120 121 122 123 124 125 126 127 128 129 130 131 132 133 134 135 136 137 138 139 140 141 142 143 144 145 146 147 148 149 150 151 152 153 154 155 156 157 158 159 160 161 162 163 164 165 166 167 168 169 170 171         </DataArray>
        <DataArray type="Int32" Name="offsets" format="ascii">
2 4 6 8 10 12 14 16 18 20 22 24 26 28 30 32 34 36 38 40 42 44 46 48 50 52 54 56 58 60 62 64 66 68 70 72 74 76 78 80 82 84 86 88 90 92 94 96 98 100 102 104 106 108 110 112 114 116 118 120 122 124 126 128 130 132 134 136 138 140 142 144 146 148 150 152 154 156 158 160 162 164 166 168 170 172         </DataArray>
        <DataArray type="UInt8" Name="types" format="ascii">
7 7 7 7 7 7 7 7 7 7 7 7 7 7 7 7 7 7 7 7 7 7 7 7 7 7 7 7 7 7 7 7 7 7 7 7 7 7 7 7 7 7 7 7 7 7 7 7 7 7 7 7 7 7 7 7 7 7 7 7 7 7 7 7 7 7 7 7 7 7 7 7 7 7 7 7 7 7 7 7 7 7 7 7 7 7 
        </DataArray>
      </Cells>
      <PointData>
      </PointData>
    </Piece>
  </UnstructuredGrid>
</VTKFile>
