<?xml version="1.0"?>
<VTKFile type="UnstructuredGrid" version="0.1" byte_order="LittleEndian">
  <UnstructuredGrid>
    <Piece NumberOfPoints="158" NumberOfCells="79">
			 <CellData Scalars="scalars">
				 <DataArray type="Float64" Name="f" format="ascii">
0.458939
0.956458
0.978652
0.00861867
0.0975333
0.168047
0.24536
0.332718
0.42871
0.530845
0.350754
0.478744
0.169751
0.320869
0.782147
0.826242
0.981988
0.0303561
0.206503
0.409039
0.620229
0.840033
0.995033
0.0733356
0.304786
0.549618
0.803434
0.991484
0.0750417
0.338351
0.61909
0.903319
0.00527364
0.2071
0.514812
0.832338
0.999919
0.159684
0.4963
0.842855
0.000546532
0.200895
0.568639
0.921812
0.0252187
0.334945
0.733036
0.994665
0.147412
0.56201
0.941836
0.0518512
0.435868
0.874117
0.0157509
0.355526
0.827801
0.00606722
0.324704
0.821046
0.00679921
0.34379
0.854783
0.0192945
0.418933
0.917857
0.0620982
0.554566
0.979447
0.167225
0.750668
0.0032504
0.380402
0.929215
0.0966789
0.686834
0.000465689
0.372806
0.944021
				 </DataArray>
				 <DataArray type="Float64" NumberOfComponents="3" Name="u.x" format="ascii">
2.72494 -0.00794798 0.
2.72009 -0.0245477 0.
2.72316 -0.0330509 0.
2.73763 -0.0373456 0.
2.72348 -0.0414701 0.
2.71358 -0.0425331 0.
2.73842 -0.0423299 0.
2.74472 -0.0652148 0.
2.70412 -0.0549907 0.
2.76552 -0.0687959 0.
2.73044 -0.0835759 0.
2.7178 -0.0897186 0.
2.73019 -0.0957378 0.
2.73644 -0.0967672 0.
2.71017 -0.100146 0.
2.70639 -0.10163 0.
2.70161 -0.105906 0.
2.70494 -0.101989 0.
2.7007 -0.102975 0.
2.69753 -0.10677 0.
2.69717 -0.11366 0.
2.69734 -0.122273 0.
2.68966 -0.134651 0.
2.70232 -0.150418 0.
2.69289 -0.157023 0.
2.68594 -0.16581 0.
2.67922 -0.174014 0.
2.66774 -0.184996 0.
2.68241 -0.200579 0.
2.66883 -0.209171 0.
2.66065 -0.214126 0.
2.65229 -0.217853 0.
2.65951 -0.234191 0.
2.64963 -0.236118 0.
2.65285 -0.240685 0.
2.6449 -0.252643 0.
2.6213 -0.264744 0.
2.63673 -0.284354 0.
2.62876 -0.293614 0.
2.6161 -0.304742 0.
2.62215 -0.339586 0.
2.6089 -0.338792 0.
2.60877 -0.347641 0.
2.58657 -0.36038 0.
2.59384 -0.387491 0.
2.57436 -0.391931 0.
2.57092 -0.408804 0.
2.53944 -0.424444 0.
2.55547 -0.464889 0.
2.5452 -0.471606 0.
2.50914 -0.48847 0.
2.52283 -0.526122 0.
2.49004 -0.532112 0.
2.46694 -0.546023 0.
2.47472 -0.594662 0.
2.44797 -0.593633 0.
2.43544 -0.61169 0.
2.44432 -0.675621 0.
2.39388 -0.673747 0.
2.37683 -0.685807 0.
2.37844 -0.751136 0.
2.33403 -0.743205 0.
2.31861 -0.764799 0.
2.32778 -0.851759 0.
2.27502 -0.843332 0.
2.22963 -0.858366 0.
2.24077 -0.933555 0.
2.19707 -0.934995 0.
2.11407 -0.945001 0.
2.12675 -1.01117 0.
2.1241 -1.03009 0.
2.12126 -1.14702 0.
2.02423 -1.1271 0.
1.96281 -1.1316 0.
1.9742 -1.23482 0.
1.92608 -1.23543 0.
1.91058 -1.34715 0.
1.7934 -1.31663 0.
1.73901 -1.30987 0.
				 </DataArray>
			 </CellData>
      <Points>
        <DataArray type="Float32" Name="vertices" NumberOfComponents="3" format="ascii">
22.4546 0 0 22.4551 0.0292969 6.21678e-313 22.4551 0.0292969 0 22.4557 0.0439453 3.10839e-313 22.4557 0.0439453 0 22.4561 0.050655 1.5542e-313 22.4561 0.0503908 0 22.4565 0.0585938 3.10839e-313 22.4565 0.0585938 0 22.457 0.065918 1.5542e-313 22.457 0.065918 0 22.4576 0.0732422 1.5542e-313 22.4576 0.0732422 0 22.4582 0.0805664 1.5542e-313 22.4582 0.0805664 0 22.4588 0.0878906 1.5542e-313 22.4588 0.0878906 0 22.4596 0.0952148 1.5542e-313 22.4596 0.0952148 0 22.4603 0.102539 1.5542e-313 22.4603 0.102539 0 22.4621 0.117188 3.10839e-313 22.4621 0.117188 0 22.4641 0.131836 3.10839e-313 22.4641 0.131836 0 22.4652 0.13916 1.5542e-313 22.4652 0.13916 0 22.4663 0.146484 1.5542e-313 22.4663 0.146484 0 22.4687 0.161133 3.10839e-313 22.4688 0.161133 0 22.4701 0.168457 1.5542e-313 22.4701 0.168457 0 22.4707 0.171645 1.5542e-313 22.4707 0.171642 0 22.4715 0.175781 1.5542e-313 22.4715 0.175781 0 22.4729 0.183105 1.5542e-313 22.4729 0.183105 0 22.4745 0.19043 1.5542e-313 22.4745 0.19043 0 22.476 0.197754 1.5542e-313 22.476 0.197754 0 22.4777 0.205078 1.5542e-313 22.4777 0.205078 0 22.478 0.206593 1.5542e-313 22.478 0.206583 0 22.4794 0.212402 1.5542e-313 22.4794 0.212402 0 22.4811 0.219727 1.5542e-313 22.4811 0.219727 0 22.483 0.227051 1.5542e-313 22.483 0.227051 0 22.4849 0.234375 1.5542e-313 22.4849 0.234375 0 22.4854 0.236223 1.5542e-313 22.4854 0.236213 0 22.4868 0.241699 1.5542e-313 22.4868 0.241699 0 22.4888 0.249023 1.5542e-313 22.4888 0.249023 0 22.4909 0.256348 1.5542e-313 22.4909 0.256348 0 22.4927 0.262287 1.5542e-313 22.4927 0.262285 0 22.4931 0.263672 1.5542e-313 22.4931 0.263672 0 22.4953 0.270996 1.5542e-313 22.4953 0.270996 0 22.4976 0.27832 1.5542e-313 22.4976 0.27832 0 22.5 0.285645 1.5542e-313 22.4999 0.285645 0 22.5 0.285807 1.5542e-313 22.5 0.285785 0 22.5024 0.292969 1.5542e-313 22.5024 0.292969 0 22.5049 0.300293 1.5542e-313 22.5049 0.300293 0 22.5073 0.307211 1.5542e-313 22.5073 0.307209 0 22.5075 0.307617 1.5542e-313 22.5075 0.307617 0 22.5101 0.314941 1.5542e-313 22.5101 0.314941 0 22.5129 0.322266 1.5542e-313 22.5129 0.322266 0 22.5146 0.326945 1.5542e-313 22.5146 0.326932 0 22.5157 0.32959 1.5542e-313 22.5157 0.32959 0 22.5185 0.336914 1.5542e-313 22.5185 0.336914 0 22.5215 0.344238 1.5542e-313 22.5215 0.344238 0 22.522 0.345413 1.5542e-313 22.522 0.345385 0 22.5245 0.351562 1.5542e-313 22.5245 0.351562 0 22.5276 0.358887 1.5542e-313 22.5276 0.358887 0 22.5293 0.362666 1.5542e-313 22.5293 0.362643 0 22.5309 0.366211 1.5542e-313 22.5308 0.366211 0 22.5341 0.373535 1.5542e-313 22.5341 0.373535 0 22.5366 0.378955 1.5542e-313 22.5366 0.378942 0 22.5375 0.380859 1.5542e-313 22.5375 0.380859 0 22.541 0.388184 1.5542e-313 22.541 0.388184 0 22.5439 0.394358 1.5542e-313 22.5439 0.394349 0 22.5445 0.395508 1.5542e-313 22.5445 0.395508 0 22.5481 0.402832 1.5542e-313 22.5481 0.402832 0 22.5513 0.40897 1.5542e-313 22.5513 0.40896 0 22.5519 0.410156 1.5542e-313 22.5519 0.410156 0 22.5557 0.41748 1.5542e-313 22.5557 0.41748 0 22.5586 0.422864 1.5542e-313 22.5586 0.422842 0 22.5596 0.424805 1.5542e-313 22.5596 0.424805 0 22.5637 0.432129 1.5542e-313 22.5637 0.432129 0 22.5659 0.436069 1.5542e-313 22.5659 0.436028 0 22.5679 0.439453 1.5542e-313 22.5678 0.439453 0 22.5721 0.446777 1.5542e-313 22.5721 0.446777 0 22.5732 0.448698 1.5542e-313 22.5732 0.448632 0 22.5765 0.454102 1.5542e-313 22.5765 0.454102 0 22.5806 0.460687 1.5542e-313 22.5806 0.460668 0 22.581 0.461426 1.5542e-313 22.581 0.461426 0 22.5857 0.46875 1.5542e-313 22.5857 0.46875 0 22.5879 0.47216 1.5542e-313 22.5879 0.47209 0 22.5905 0.476074 1.5542e-313 22.5905 0.476074 0 22.5952 0.483138 1.5542e-313 22.5952 0.483125 0 22.5954 0.483398 1.5542e-313 22.5954 0.483398 0 22.6005 0.490723 1.5542e-313 22.6005 0.490723 0 22.6025 0.493636 1.5542e-313         </DataArray>
      </Points>
      <Cells>
        <DataArray type="Int32" Name="connectivity" format="ascii">
0 1 2 3 4 5 6 7 8 9 10 11 12 13 14 15 16 17 18 19 20 21 22 23 24 25 26 27 28 29 30 31 32 33 34 35 36 37 38 39 40 41 42 43 44 45 46 47 48 49 50 51 52 53 54 55 56 57 58 59 60 61 62 63 64 65 66 67 68 69 70 71 72 73 74 75 76 77 78 79 80 81 82 83 84 85 86 87 88 89 90 91 92 93 94 95 96 97 98 99 100 101 102 103 104 105 106 107 108 109 110 111 112 113 114 115 116 117 118 119 120 121 122 123 124 125 126 127 128 129 130 131 132 133 134 135 136 137 138 139 140 141 142 143 144 145 146 147 148 149 150 151 152 153 154 155 156 157         </DataArray>
        <DataArray type="Int32" Name="offsets" format="ascii">
2 4 6 8 10 12 14 16 18 20 22 24 26 28 30 32 34 36 38 40 42 44 46 48 50 52 54 56 58 60 62 64 66 68 70 72 74 76 78 80 82 84 86 88 90 92 94 96 98 100 102 104 106 108 110 112 114 116 118 120 122 124 126 128 130 132 134 136 138 140 142 144 146 148 150 152 154 156 158         </DataArray>
        <DataArray type="UInt8" Name="types" format="ascii">
7 7 7 7 7 7 7 7 7 7 7 7 7 7 7 7 7 7 7 7 7 7 7 7 7 7 7 7 7 7 7 7 7 7 7 7 7 7 7 7 7 7 7 7 7 7 7 7 7 7 7 7 7 7 7 7 7 7 7 7 7 7 7 7 7 7 7 7 7 7 7 7 7 7 7 7 7 7 7 
        </DataArray>
      </Cells>
      <PointData>
      </PointData>
    </Piece>
  </UnstructuredGrid>
</VTKFile>
