<?xml version="1.0"?>
<VTKFile type="UnstructuredGrid" version="0.1" byte_order="LittleEndian">
  <UnstructuredGrid>
    <Piece NumberOfPoints="102" NumberOfCells="51">
			 <CellData Scalars="scalars">
				 <DataArray type="Float64" Name="f" format="ascii">
0.0539462
0.359524
0.709336
0.982647
0.08926
0.445687
0.830459
0.000241421
0.228836
0.639276
0.972806
0.0908792
0.501142
0.916443
0.0364739
0.417707
0.876607
0.0204457
0.391062
0.876439
0.02535
0.428028
0.915458
0.0556895
0.529251
0.969341
0.136422
0.700715
1.32595e-05
0.999996
0.316844
0.893309
0.0600436
0.608852
0.997089
0.290201
0.904203
0.085008
0.709465
0.00496759
0.466889
0.984226
0.262355
0.91951
0.130434
0.826183
0.0571114
0.730698
0.022523
0.654084
0.00891755
				 </DataArray>
				 <DataArray type="Float64" NumberOfComponents="3" Name="u.x" format="ascii">
2.20665 -0.467659 0.
2.17062 -0.48229 0.
2.14873 -0.492321 0.
2.12246 -0.503055 0.
2.15371 -0.520041 0.
2.12884 -0.544847 0.
2.11836 -0.561969 0.
2.16003 -0.61409 0.
2.09707 -0.601357 0.
2.09492 -0.614214 0.
2.05965 -0.632936 0.
2.08447 -0.690602 0.
2.05476 -0.690173 0.
2.01949 -0.701611 0.
2.0374 -0.731027 0.
2.00006 -0.741402 0.
1.96957 -0.75305 0.
1.99017 -0.793076 0.
1.95407 -0.797835 0.
1.92373 -0.822802 0.
1.96549 -0.860341 0.
1.89114 -0.885352 0.
1.84542 -0.889984 0.
1.86405 -0.916021 0.
1.82428 -0.929031 0.
1.75644 -0.944476 0.
1.78005 -0.980707 0.
1.75567 -0.997235 0.
1.75842 -1.06508 0.
1.65745 -1.01746 0.
1.69309 -1.05735 0.
1.62866 -1.06959 0.
1.65465 -1.11332 0.
1.58144 -1.1236 0.
1.48714 -1.1279 0.
1.51844 -1.15522 0.
1.45106 -1.16865 0.
1.47642 -1.21918 0.
1.43222 -1.23671 0.
1.44361 -1.30545 0.
1.32463 -1.29702 0.
1.25011 -1.27789 0.
1.25201 -1.35 0.
1.20356 -1.33257 0.
1.19479 -1.4212 0.
1.12649 -1.3956 0.
1.11807 -1.47499 0.
1.03149 -1.44389 0.
1.02705 -1.50309 0.
0.957902 -1.48073 0.
0.948671 -1.52457 0.
				 </DataArray>
			 </CellData>
      <Points>
        <DataArray type="Float32" Name="vertices" NumberOfComponents="3" format="ascii">
7.08984 0.237509 0 7.09123 0.241699 1.5542e-313 7.09122 0.241699 0 7.09373 0.249023 1.5542e-313 7.09373 0.249023 0 7.09634 0.256348 1.5542e-313 7.09634 0.256348 0 7.09717 0.258596 1.5542e-313 7.09717 0.258572 0 7.09905 0.263672 1.5542e-313 7.09904 0.263672 0 7.10182 0.270996 1.5542e-313 7.10182 0.270996 0 7.10449 0.277812 1.5542e-313 7.10449 0.277802 0 7.10469 0.27832 3.10839e-313 7.10469 0.27832 0 7.10765 0.285645 1.5542e-313 7.10765 0.285645 0 7.1107 0.292969 1.5542e-313 7.1107 0.292969 0 7.11182 0.295571 1.5542e-313 7.11182 0.295536 0 7.11387 0.300293 1.5542e-313 7.11386 0.300293 0 7.11712 0.307617 1.5542e-313 7.11711 0.307617 0 7.11914 0.31204 1.5542e-313 7.11914 0.312019 0 7.12048 0.314941 1.5542e-313 7.12047 0.314941 0 7.12393 0.322266 1.5542e-313 7.12393 0.322266 0 7.12646 0.327481 1.5542e-313 7.12646 0.327467 0 7.1275 0.32959 1.5542e-313 7.12749 0.32959 0 7.13117 0.336914 1.5542e-313 7.13117 0.336914 0 7.13379 0.341971 1.5542e-313 7.13379 0.341948 0 7.13498 0.344238 1.5542e-313 7.13497 0.344238 0 7.13888 0.351562 1.5542e-313 7.13888 0.351562 0 7.14111 0.355621 1.5542e-313 7.14111 0.355593 0 7.14293 0.358887 1.5542e-313 7.14291 0.358887 0 7.14707 0.366211 1.5542e-313 7.14705 0.366211 0 7.14844 0.368581 1.5542e-313 7.14844 0.368536 0 7.15137 0.373535 1.5542e-313 7.15135 0.373535 0 7.15576 0.380817 1.5542e-313 7.15576 0.38081 0 7.15579 0.380859 1.5542e-313 7.15575 0.380859 0 7.15576 0.380886 1.5542e-313 7.15579 0.380859 0 7.16038 0.388184 1.5542e-313 7.16037 0.388184 0 7.16309 0.392393 1.5542e-313 7.16309 0.39235 0 7.16513 0.395508 1.5542e-313 7.1651 0.395508 0 7.16999 0.402832 1.5542e-313 7.16995 0.402832 0 7.17041 0.403515 1.5542e-313 7.17041 0.40344 0 7.17505 0.410156 1.5542e-313 7.17503 0.410156 0 7.17773 0.413958 1.5542e-313 7.17773 0.413902 0 7.18028 0.41748 1.5542e-313 7.18026 0.41748 0 7.18506 0.423976 1.5542e-313 7.18506 0.423955 0 7.18569 0.424805 1.5542e-313 7.18567 0.424805 0 7.19128 0.432129 1.5542e-313 7.19124 0.432129 0 7.19238 0.433605 1.5542e-313 7.19238 0.43349 0 7.1971 0.439453 1.5542e-313 7.19708 0.439453 0 7.19971 0.442739 1.5542e-313 7.19971 0.442622 0 7.20307 0.446777 1.5542e-313 7.20307 0.446777 0 7.20703 0.451488 1.5542e-313 7.20703 0.451421 0 7.20932 0.454102 1.5542e-313 7.2093 0.454102 0 7.21436 0.459814 1.5542e-313 7.21436 0.459788 0 7.21583 0.461426 1.5542e-313 7.21581 0.461426 0 7.22168 0.467754 1.5542e-313 7.22168 0.467743 0 7.22263 0.46875 1.5542e-313         </DataArray>
      </Points>
      <Cells>
        <DataArray type="Int32" Name="connectivity" format="ascii">
0 1 2 3 4 5 6 7 8 9 10 11 12 13 14 15 16 17 18 19 20 21 22 23 24 25 26 27 28 29 30 31 32 33 34 35 36 37 38 39 40 41 42 43 44 45 46 47 48 49 50 51 52 53 54 55 56 57 58 59 60 61 62 63 64 65 66 67 68 69 70 71 72 73 74 75 76 77 78 79 80 81 82 83 84 85 86 87 88 89 90 91 92 93 94 95 96 97 98 99 100 101         </DataArray>
        <DataArray type="Int32" Name="offsets" format="ascii">
2 4 6 8 10 12 14 16 18 20 22 24 26 28 30 32 34 36 38 40 42 44 46 48 50 52 54 56 58 60 62 64 66 68 70 72 74 76 78 80 82 84 86 88 90 92 94 96 98 100 102         </DataArray>
        <DataArray type="UInt8" Name="types" format="ascii">
7 7 7 7 7 7 7 7 7 7 7 7 7 7 7 7 7 7 7 7 7 7 7 7 7 7 7 7 7 7 7 7 7 7 7 7 7 7 7 7 7 7 7 7 7 7 7 7 7 7 7 
        </DataArray>
      </Cells>
      <PointData>
      </PointData>
    </Piece>
  </UnstructuredGrid>
</VTKFile>
