<?xml version="1.0"?>
<VTKFile type="UnstructuredGrid" version="0.1" byte_order="LittleEndian">
  <UnstructuredGrid>
    <Piece NumberOfPoints="142" NumberOfCells="71">
			 <CellData Scalars="scalars">
				 <DataArray type="Float64" Name="f" format="ascii">
0.68915
0.69569
0.709365
0.732155
0.764222
0.804852
0.439831
0.271132
0.676552
0.787108
0.913096
0.998814
0.0409277
0.18765
0.349031
0.516493
0.692645
0.877876
0.58559
0.794824
0.979446
0.00328625
0.157256
0.400616
0.653313
0.910597
0.00430436
0.184813
0.46335
0.751633
0.982853
0.0669467
0.356857
0.673404
0.958284
0.041162
0.335115
0.680839
0.971177
0.0653733
0.401207
0.775518
0.998351
0.161608
0.555457
0.92777
0.03467
0.379673
0.806855
0.000679647
0.246048
0.695919
0.993497
0.165088
0.632432
0.983064
0.135668
0.61708
0.983209
0.146759
0.65603
0.993999
0.202613
0.74871
0.000821464
0.317934
0.868566
0.0340655
0.503843
0.969908
0.154122
				 </DataArray>
				 <DataArray type="Float64" NumberOfComponents="3" Name="u.x" format="ascii">
2.70542 0.0168695 0.
2.74942 0.0217225 0.
2.78418 0.00513032 0.
2.78881 -0.0165711 0.
2.77761 -0.0296525 0.
2.76992 -0.0313488 0.
2.77603 -0.0438429 0.
2.78174 -0.0606373 0.
2.77074 -0.0687437 0.
2.76398 -0.075596 0.
2.75578 -0.07461 0.
2.76359 -0.0849861 0.
2.79089 -0.0969669 0.
2.78887 -0.11787 0.
2.7757 -0.112268 0.
2.7818 -0.121023 0.
2.75231 -0.121732 0.
2.75191 -0.119114 0.
2.75865 -0.124502 0.
2.74823 -0.128933 0.
2.7495 -0.132596 0.
2.8026 -0.134002 0.
2.72479 -0.143979 0.
2.75018 -0.136133 0.
2.75136 -0.141848 0.
2.74996 -0.146764 0.
2.75426 -0.154385 0.
2.74746 -0.155987 0.
2.73829 -0.16725 0.
2.7379 -0.177783 0.
2.72343 -0.193343 0.
2.74254 -0.218878 0.
2.72571 -0.231794 0.
2.71275 -0.239764 0.
2.69869 -0.244745 0.
2.70446 -0.258501 0.
2.699 -0.26251 0.
2.70203 -0.273235 0.
2.67754 -0.290909 0.
2.69674 -0.316621 0.
2.66841 -0.326845 0.
2.65289 -0.336813 0.
2.63261 -0.346377 0.
2.64493 -0.367233 0.
2.63783 -0.375179 0.
2.60738 -0.39423 0.
2.62271 -0.426485 0.
2.58723 -0.43318 0.
2.57649 -0.446862 0.
2.58101 -0.495557 0.
2.55872 -0.493225 0.
2.5623 -0.508879 0.
2.50199 -0.533179 0.
2.52584 -0.583635 0.
2.5008 -0.592307 0.
2.44698 -0.603073 0.
2.45555 -0.6344 0.
2.44508 -0.646033 0.
2.38548 -0.67023 0.
2.40518 -0.727233 0.
2.39611 -0.739251 0.
2.30547 -0.758558 0.
2.32527 -0.80706 0.
2.31044 -0.823954 0.
2.30445 -0.914261 0.
2.24057 -0.895389 0.
2.22207 -0.916825 0.
2.23649 -1.02885 0.
2.16428 -1.02077 0.
2.06368 -1.02617 0.
2.07468 -1.09615 0.
				 </DataArray>
			 </CellData>
      <Points>
        <DataArray type="Float32" Name="vertices" NumberOfComponents="3" format="ascii">
33.1984 0 0 33.1984 0.00732422 1.5542e-313 33.1984 0.00732422 0 33.1985 0.0146484 1.5542e-313 33.1985 0.0146484 0 33.1986 0.0219727 1.5542e-313 33.1986 0.0219727 0 33.1988 0.0292969 1.5542e-313 33.1988 0.0292969 0 33.1991 0.0366211 1.5542e-313 33.1991 0.0366211 0 33.1994 0.0439453 1.5542e-313 33.1994 0.0439453 0 33.2002 0.0585938 3.10839e-313 33.2001 0.0585938 0 33.2025 0.0878906 6.21678e-313 33.2025 0.0878906 0 33.204 0.102539 3.10839e-313 33.204 0.102539 0 33.2058 0.117188 3.10839e-313 33.2058 0.117188 0 33.2077 0.131836 3.10839e-313 33.2077 0.131836 0 33.208 0.133668 3.10839e-313 33.208 0.133697 0 33.2088 0.13916 1.5542e-313 33.2088 0.13916 0 33.21 0.146484 1.5542e-313 33.21 0.146484 0 33.2112 0.153809 1.5542e-313 33.2112 0.153809 0 33.2124 0.161133 1.5542e-313 33.2124 0.161133 0 33.2137 0.168457 1.5542e-313 33.2137 0.168457 0 33.2151 0.175781 1.5542e-313 33.2151 0.175781 0 33.2181 0.19043 3.10839e-313 33.2181 0.19043 0 33.2212 0.205078 3.10839e-313 33.2212 0.205078 0 33.2227 0.211214 3.10839e-313 33.2227 0.211163 0 33.2229 0.212402 1.5542e-313 33.2229 0.212402 0 33.2247 0.219727 1.5542e-313 33.2247 0.219727 0 33.2265 0.227051 1.5542e-313 33.2265 0.227051 0 33.2284 0.234375 1.5542e-313 33.2284 0.234375 0 33.23 0.240383 1.5542e-313 33.23 0.240381 0 33.2303 0.241699 1.5542e-313 33.2303 0.241699 0 33.2323 0.249023 1.5542e-313 33.2323 0.249023 0 33.2344 0.256348 1.5542e-313 33.2344 0.256348 0 33.2366 0.263672 1.5542e-313 33.2366 0.263672 0 33.2373 0.266138 1.5542e-313 33.2373 0.266124 0 33.2388 0.270996 1.5542e-313 33.2388 0.270996 0 33.2411 0.27832 1.5542e-313 33.2411 0.27832 0 33.2434 0.285645 1.5542e-313 33.2434 0.285645 0 33.2446 0.289322 1.5542e-313 33.2446 0.289315 0 33.2458 0.292969 1.5542e-313 33.2458 0.292969 0 33.2483 0.300293 1.5542e-313 33.2483 0.300293 0 33.2509 0.307617 1.5542e-313 33.2509 0.307617 0 33.252 0.310547 1.5542e-313 33.252 0.310529 0 33.2535 0.314941 1.5542e-313 33.2535 0.314941 0 33.2562 0.322266 1.5542e-313 33.2562 0.322266 0 33.259 0.32959 1.5542e-313 33.259 0.32959 0 33.2593 0.330263 1.5542e-313 33.2593 0.330246 0 33.2619 0.336914 1.5542e-313 33.2619 0.336914 0 33.2648 0.344238 1.5542e-313 33.2648 0.344238 0 33.2666 0.348575 1.5542e-313 33.2666 0.348558 0 33.2678 0.351562 1.5542e-313 33.2678 0.351562 0 33.2709 0.358887 1.5542e-313 33.2709 0.358887 0 33.2739 0.365803 1.5542e-313 33.2739 0.365801 0 33.2741 0.366211 1.5542e-313 33.2741 0.366211 0 33.2774 0.373535 1.5542e-313 33.2774 0.373535 0 33.2807 0.380859 1.5542e-313 33.2807 0.380859 0 33.2812 0.38208 1.5542e-313 33.2812 0.382033 0 33.2841 0.388184 1.5542e-313 33.2841 0.388184 0 33.2876 0.395508 1.5542e-313 33.2876 0.395508 0 33.2886 0.397429 1.5542e-313 33.2886 0.397395 0 33.2913 0.402832 1.5542e-313 33.2912 0.402832 0 33.2949 0.410156 1.5542e-313 33.2949 0.410156 0 33.2959 0.412019 1.5542e-313 33.2959 0.411975 0 33.2988 0.41748 1.5542e-313 33.2988 0.41748 0 33.3027 0.424805 1.5542e-313 33.3026 0.424805 0 33.3032 0.42589 1.5542e-313 33.3032 0.425823 0 33.3067 0.432129 1.5542e-313 33.3067 0.432129 0 33.3105 0.439063 1.5542e-313 33.3105 0.439056 0 33.3108 0.439453 1.5542e-313 33.3108 0.439453 0 33.315 0.446777 1.5542e-313 33.315 0.446777 0 33.3179 0.451654 1.5542e-313 33.3179 0.451619 0 33.3193 0.454102 1.5542e-313 33.3193 0.454102 0 33.3238 0.461426 1.5542e-313 33.3238 0.461426 0 33.3252 0.463699 1.5542e-313 33.3252 0.463617 0 33.3284 0.46875 1.5542e-313         </DataArray>
      </Points>
      <Cells>
        <DataArray type="Int32" Name="connectivity" format="ascii">
0 1 2 3 4 5 6 7 8 9 10 11 12 13 14 15 16 17 18 19 20 21 22 23 24 25 26 27 28 29 30 31 32 33 34 35 36 37 38 39 40 41 42 43 44 45 46 47 48 49 50 51 52 53 54 55 56 57 58 59 60 61 62 63 64 65 66 67 68 69 70 71 72 73 74 75 76 77 78 79 80 81 82 83 84 85 86 87 88 89 90 91 92 93 94 95 96 97 98 99 100 101 102 103 104 105 106 107 108 109 110 111 112 113 114 115 116 117 118 119 120 121 122 123 124 125 126 127 128 129 130 131 132 133 134 135 136 137 138 139 140 141         </DataArray>
        <DataArray type="Int32" Name="offsets" format="ascii">
2 4 6 8 10 12 14 16 18 20 22 24 26 28 30 32 34 36 38 40 42 44 46 48 50 52 54 56 58 60 62 64 66 68 70 72 74 76 78 80 82 84 86 88 90 92 94 96 98 100 102 104 106 108 110 112 114 116 118 120 122 124 126 128 130 132 134 136 138 140 142         </DataArray>
        <DataArray type="UInt8" Name="types" format="ascii">
7 7 7 7 7 7 7 7 7 7 7 7 7 7 7 7 7 7 7 7 7 7 7 7 7 7 7 7 7 7 7 7 7 7 7 7 7 7 7 7 7 7 7 7 7 7 7 7 7 7 7 7 7 7 7 7 7 7 7 7 7 7 7 7 7 7 7 7 7 7 7 
        </DataArray>
      </Cells>
      <PointData>
      </PointData>
    </Piece>
  </UnstructuredGrid>
</VTKFile>
