<?xml version="1.0"?>
<VTKFile type="UnstructuredGrid" version="0.1" byte_order="LittleEndian">
  <UnstructuredGrid>
    <Piece NumberOfPoints="118" NumberOfCells="59">
			 <CellData Scalars="scalars">
				 <DataArray type="Float64" Name="f" format="ascii">
0.0750626
0.59275
0.98997
0.212536
0.814492
0.0189078
0.485105
0.974239
0.185426
0.823891
0.0317677
0.574324
0.997058
0.32328
0.940647
0.151277
0.835276
0.055494
0.707745
0.0126119
0.584793
0.000459353
0.488846
0.998183
0.430581
0.994827
0.417413
0.995532
0.447871
0.999237
0.522203
0.00290053
0.635636
0.0274519
0.772461
0.099936
0.902075
0.255117
0.987626
0.521173
0.0227521
0.816667
0.207256
0.987688
0.58739
0.0787883
0.937072
0.476701
0.0481621
0.920537
0.490789
0.0799636
0.965366
0.631671
0.250771
0.00719385
0.894336
0.582717
0.294836
				 </DataArray>
				 <DataArray type="Float64" NumberOfComponents="3" Name="u.x" format="ascii">
1.74686 -0.959841 0.
1.70688 -0.972607 0.
1.62879 -0.982847 0.
1.65858 -1.0161 0.
1.61665 -1.03622 0.
1.65296 -1.07912 0.
1.55646 -1.10271 0.
1.46778 -1.10239 0.
1.49773 -1.14119 0.
1.44714 -1.15697 0.
1.45451 -1.22339 0.
1.40475 -1.21803 0.
1.31307 -1.21526 0.
1.32344 -1.27535 0.
1.26783 -1.26639 0.
1.27539 -1.35003 0.
1.19675 -1.33346 0.
1.19482 -1.39371 0.
1.10395 -1.37789 0.
1.10359 -1.41857 0.
1.00873 -1.40281 0.
1.02015 -1.44683 0.
0.948263 -1.43609 0.
0.907323 -1.39268 0.
0.895308 -1.46785 0.
0.799568 -1.41703 0.
0.779499 -1.48989 0.
0.705655 -1.43565 0.
0.668053 -1.50312 0.
0.619091 -1.43876 0.
0.5899 -1.51584 0.
0.57937 -1.57642 0.
0.499678 -1.54412 0.
0.480462 -1.58136 0.
0.384515 -1.5372 0.
0.34761 -1.54756 0.
0.272559 -1.49856 0.
0.237567 -1.52937 0.
0.167248 -1.46565 0.
0.132986 -1.51266 0.
0.122001 -1.52651 0.
0.00305269 -1.48873 0.
-0.0325145 -1.457 0.
-0.129528 -1.40264 0.
-0.16546 -1.40929 0.
-0.197177 -1.35424 0.
-0.265717 -1.32431 0.
-0.285015 -1.31798 0.
-0.307042 -1.32435 0.
-0.401455 -1.28043 0.
-0.441867 -1.27508 0.
-0.46338 -1.23452 0.
-0.600422 -1.1899 0.
-0.646254 -1.16701 0.
-0.676318 -1.06454 0.
-0.684803 -1.02618 0.
-0.827485 -1.00697 0.
-0.86768 -0.933078 0.
-0.889404 -0.840495 0.
				 </DataArray>
			 </CellData>
      <Points>
        <DataArray type="Float32" Name="vertices" NumberOfComponents="3" format="ascii">
6.79688 0.362484 0 6.79904 0.366211 1.5542e-313 6.79902 0.366211 0 6.80341 0.373535 1.5542e-313 6.80339 0.373535 0 6.8042 0.374862 1.5542e-313 6.8042 0.374796 0 6.80796 0.380859 1.5542e-313 6.80795 0.380859 0 6.81152 0.38643 1.5542e-313 6.81152 0.386398 0 6.81266 0.388184 1.5542e-313 6.81265 0.388184 0 6.8175 0.395508 1.5542e-313 6.81749 0.395508 0 6.81885 0.39754 1.5542e-313 6.81885 0.397444 0 6.82254 0.402832 1.5542e-313 6.82252 0.402832 0 6.82617 0.408 1.5542e-313 6.82617 0.407941 0 6.82771 0.410156 1.5542e-313 6.8277 0.410156 0 6.83306 0.41748 1.5542e-313 6.83301 0.41748 0 6.8335 0.418132 1.5542e-313 6.8335 0.418044 0 6.83863 0.424805 1.5542e-313 6.83861 0.424805 0 6.84082 0.427687 1.5542e-313 6.84082 0.427578 0 6.84439 0.432129 1.5542e-313 6.84437 0.432129 0 6.84814 0.436806 1.5542e-313 6.84814 0.436743 0 6.85034 0.439453 1.5542e-313 6.85032 0.439453 0 6.85547 0.445537 1.5542e-313 6.85547 0.44552 0 6.85654 0.446777 1.5542e-313 6.85652 0.446777 0 6.86279 0.453875 1.5542e-313 6.86279 0.453868 0 6.863 0.454102 1.5542e-313 6.863 0.454102 0 6.86975 0.461426 1.5542e-313 6.86969 0.461426 0 6.87012 0.461881 1.5542e-313 6.87012 0.461819 0 6.87678 0.46875 1.5542e-313 6.8767 0.46875 0 6.87744 0.469501 1.5542e-313 6.87744 0.46942 0 6.88417 0.476074 1.5542e-313 6.88406 0.476074 0 6.88477 0.476755 1.5542e-313 6.88477 0.476659 0 6.8919 0.483398 1.5542e-313 6.89179 0.483398 0 6.89209 0.483674 1.5542e-313 6.89209 0.483586 0 6.89941 0.49021 1.5542e-313 6.89941 0.4902 0 6.90001 0.490723 1.5542e-313 6.9 0.490723 0 6.90674 0.496525 1.5542e-313 6.90674 0.49649 0 6.90863 0.498047 1.5542e-313 6.9086 0.498047 0 6.91406 0.502512 1.5542e-313 6.91406 0.502493 0 6.91779 0.505371 1.5542e-313 6.91768 0.505371 0 6.92139 0.508206 1.5542e-313 6.92139 0.508194 0 6.92747 0.512695 1.5542e-313 6.92735 0.512695 0 6.92871 0.513672 1.5542e-313 6.92871 0.513633 0 6.93604 0.518772 1.5542e-313 6.93604 0.518753 0 6.93796 0.52002 1.5542e-313 6.93791 0.52002 0 6.94336 0.523631 1.5542e-313 6.94336 0.523613 0 6.94932 0.527344 1.5542e-313 6.94922 0.527344 0 6.95068 0.528245 1.5542e-313 6.95068 0.528207 0 6.95801 0.532525 1.5542e-313 6.95801 0.532501 0 6.96191 0.534668 1.5542e-313 6.96185 0.534668 0 6.96533 0.536604 1.5542e-313 6.96533 0.536583 0 6.97266 0.540418 1.5542e-313 6.97266 0.540396 0 6.97589 0.541992 1.5542e-313 6.97582 0.541992 0 6.97998 0.544042 1.5542e-313 6.97998 0.544031 0 6.9873 0.547412 1.5542e-313 6.9873 0.547397 0 6.99177 0.549316 1.5542e-313 6.99169 0.549316 0 6.99463 0.55058 1.5542e-313 6.99463 0.550559 0 7.00195 0.553469 1.5542e-313 7.00195 0.553467 0 7.00928 0.556141 1.5542e-313 7.00928 0.556133 0 7.0108 0.556641 1.5542e-313 7.01078 0.556641 0 7.0166 0.558587 1.5542e-313 7.0166 0.558586 0 7.02393 0.560808 1.5542e-313 7.02393 0.560807 0 7.03125 0.562804 1.5542e-313         </DataArray>
      </Points>
      <Cells>
        <DataArray type="Int32" Name="connectivity" format="ascii">
0 1 2 3 4 5 6 7 8 9 10 11 12 13 14 15 16 17 18 19 20 21 22 23 24 25 26 27 28 29 30 31 32 33 34 35 36 37 38 39 40 41 42 43 44 45 46 47 48 49 50 51 52 53 54 55 56 57 58 59 60 61 62 63 64 65 66 67 68 69 70 71 72 73 74 75 76 77 78 79 80 81 82 83 84 85 86 87 88 89 90 91 92 93 94 95 96 97 98 99 100 101 102 103 104 105 106 107 108 109 110 111 112 113 114 115 116 117         </DataArray>
        <DataArray type="Int32" Name="offsets" format="ascii">
2 4 6 8 10 12 14 16 18 20 22 24 26 28 30 32 34 36 38 40 42 44 46 48 50 52 54 56 58 60 62 64 66 68 70 72 74 76 78 80 82 84 86 88 90 92 94 96 98 100 102 104 106 108 110 112 114 116 118         </DataArray>
        <DataArray type="UInt8" Name="types" format="ascii">
7 7 7 7 7 7 7 7 7 7 7 7 7 7 7 7 7 7 7 7 7 7 7 7 7 7 7 7 7 7 7 7 7 7 7 7 7 7 7 7 7 7 7 7 7 7 7 7 7 7 7 7 7 7 7 7 7 7 7 
        </DataArray>
      </Cells>
      <PointData>
      </PointData>
    </Piece>
  </UnstructuredGrid>
</VTKFile>
