<?xml version="1.0"?>
<VTKFile type="UnstructuredGrid" version="0.1" byte_order="LittleEndian">
  <UnstructuredGrid>
    <Piece NumberOfPoints="212" NumberOfCells="106">
			 <CellData Scalars="scalars">
				 <DataArray type="Float64" Name="f" format="ascii">
0.165934
0.577745
0.0595092
0.950993
0.462833
0.0307368
0.428277
0.904573
0.0887195
0.616041
0.0382564
0.904075
0.477895
0.94692
0.020035
0.225883
0.993882
0.827472
0.500062
0.198123
0.980202
0.00642556
0.0394482
0.0161252
0.639433
0.704228
0.191003
0.0333596
0.597817
0.360897
0.961465
0.999499
0.0918575
0.791382
0.883587
0.0386867
0.615099
0.19986
0.375713
0.99991
0.965821
0.0418223
0.00674423
0.0167035
0.71091
0.643678
0.0964171
0.890357
0.798462
0.844373
0.00478147
0.60592
0.604362
0.437081
0.910667
0.952936
0.0137574
0.0816759
0.996151
0.168444
0.270328
0.0254228
0.196387
0.255634
0.388181
0.520572
0.873319
0.995032
0.113835
0.520497
0.0183783
0.39046
0.0367087
0.416424
0.922151
0.875077
0.109204
0.858176
0.999148
0.758684
0.019593
0.272237
0.0232593
0.603419
0.928325
0.93789
0.317007
0.700029
0.996803
0.0738393
0.589472
0.0154931
0.18314
0.478183
0.974733
0.205354
0.808836
0.989677
0.0274025
0.446554
0.880575
0.933068
0.830747
0.393659
0.769628
0.998296
				 </DataArray>
				 <DataArray type="Float64" NumberOfComponents="3" Name="u.x" format="ascii">
-0.0570369 0.266798 0.
-0.0597245 0.283917 0.
-0.0291224 0.282734 0.
-0.0647422 0.284484 0.
-0.0361815 0.294784 0.
-0.0112892 0.296146 0.
-0.0157328 0.30385 0.
-0.0443376 0.299916 0.
0.0301771 0.317079 0.
0.0222511 0.330336 0.
0.0118879 0.307607 0.
-0.023431 0.311003 0.
0.00352191 0.316898 0.
-0.0060122 0.318752 0.
0.0680045 0.330436 0.
0.041422 0.32295 0.
0.0139187 0.326201 0.
0.0348045 0.334709 0.
0.0554732 0.33359 0.
0.0724363 0.332133 0.
0.0448226 0.336232 0.
0.222631 0.363585 0.
0.236754 0.356907 0.
0.227542 0.353862 0.
0.206886 0.365394 0.
0.213274 0.358778 0.
0.260639 0.353001 0.
0.299732 0.34703 0.
0.272801 0.347876 0.
0.270549 0.349812 0.
0.248035 0.350463 0.
0.259058 0.346871 0.
0.250442 0.352032 0.
0.224965 0.35777 0.
0.23647 0.355269 0.
0.0962903 0.336908 0.
0.0836806 0.350917 0.
0.119254 0.353302 0.
0.0989214 0.346558 0.
0.07594 0.349841 0.
0.0893213 0.355595 0.
0.156839 0.358221 0.
0.194635 0.364009 0.
0.174916 0.360751 0.
0.143129 0.371614 0.
0.16082 0.371827 0.
0.139175 0.356114 0.
0.10821 0.363517 0.
0.124847 0.366658 0.
0.0620239 0.344134 0.
0.203593 0.35647 0.
0.178905 0.369014 0.
0.190269 0.368008 0.
0.540686 0.011478 0.
0.50953 0.0338313 0.
0.522494 0.0470128 0.
0.554184 0.098871 0.
0.54843 0.0822549 0.
0.530624 0.0685169 0.
0.529647 0.0886947 0.
0.505157 0.0962508 0.
0.52797 0.14424 0.
0.46739 0.141724 0.
0.504919 0.155085 0.
0.492202 0.102721 0.
0.504971 0.109135 0.
0.480349 0.11554 0.
0.473466 0.124033 0.
0.420683 0.26983 0.
0.39927 0.27152 0.
0.390823 0.287477 0.
0.365304 0.295639 0.
0.402451 0.27975 0.
0.38201 0.282408 0.
0.385455 0.277942 0.
0.368871 0.28737 0.
0.499457 0.175582 0.
0.478337 0.160351 0.
0.473705 0.173476 0.
0.472449 0.194939 0.
0.479745 0.231307 0.
0.462545 0.233645 0.
0.450453 0.247752 0.
0.450632 0.240439 0.
0.436358 0.244218 0.
0.460731 0.212303 0.
0.431566 0.25284 0.
0.417963 0.255904 0.
0.387022 0.255387 0.
0.34996 0.314751 0.
0.329245 0.31573 0.
0.329059 0.325854 0.
0.303532 0.336125 0.
0.304404 0.330187 0.
0.291269 0.330636 0.
0.329423 0.319329 0.
0.312946 0.325227 0.
0.315754 0.316501 0.
0.369201 0.297084 0.
0.348152 0.303723 0.
0.353063 0.299591 0.
0.33627 0.303679 0.
0.286564 0.340752 0.
-0.0819696 0.258145 0.
-0.0822985 0.272557 0.
-0.0870457 0.266278 0.
				 </DataArray>
			 </CellData>
      <Points>
        <DataArray type="Float32" Name="vertices" NumberOfComponents="3" format="ascii">
3.77197 0.466068 0 3.76533 0.46875 1.5542e-313 3.77197 0.466068 0 3.7793 0.462969 1.5542e-313 3.78662 0.459745 0 3.78282 0.461426 1.5542e-313 3.7793 0.462951 0 3.78274 0.461426 1.5542e-313 3.78662 0.459729 0 3.79395 0.456343 1.5542e-313 3.80127 0.45284 0 3.79866 0.454102 1.5542e-313 3.80127 0.452809 0 3.80859 0.449121 1.5542e-313 3.79395 0.456325 0 3.79855 0.454102 1.5542e-313 3.83057 0.437126 0 3.82648 0.439453 1.5542e-313 3.83057 0.437109 0 3.83789 0.432773 1.5542e-313 3.81592 0.44531 0 3.81312 0.446777 1.5542e-313 3.80859 0.449101 0 3.81302 0.446777 1.5542e-313 3.81592 0.445279 0 3.82324 0.441275 1.5542e-313 3.82324 0.441253 0 3.82641 0.439453 1.5542e-313 3.85254 0.423634 0 3.8507 0.424805 1.5542e-313 3.84521 0.428266 0 3.83894 0.432129 1.5542e-313 3.83789 0.432759 0 3.83893 0.432129 1.5542e-313 3.84521 0.428247 0 3.85059 0.424805 1.5542e-313 3.85254 0.423579 0 3.85986 0.418705 1.5542e-313 3.86719 0.413647 0 3.86164 0.41748 1.5542e-313 3.85986 0.418675 0 3.86164 0.41748 1.5542e-313 3.94043 0.350715 0 3.93962 0.351562 1.5542e-313 3.95508 0.334718 0 3.95315 0.336914 1.5542e-313 3.94775 0.342867 0 3.94649 0.344238 1.5542e-313 3.94043 0.350647 0 3.94647 0.344238 1.5542e-313 3.94775 0.342838 0 3.95311 0.336914 1.5542e-313 3.96973 0.317227 0 3.96566 0.322266 1.5542e-313 3.98438 0.298044 0 3.98278 0.300293 1.5542e-313 3.98274 0.300293 0 3.97726 0.307617 1.5542e-313 3.97705 0.307884 0 3.97156 0.314941 1.5542e-313 3.96973 0.317228 0 3.97153 0.314941 1.5542e-313 3.97705 0.307883 0 3.97725 0.307617 1.5542e-313 3.9624 0.32615 0 3.95954 0.32959 1.5542e-313 3.95508 0.334678 0 3.95948 0.32959 1.5542e-313 3.9624 0.326169 0 3.9656 0.322266 1.5542e-313 3.87451 0.408441 0 3.87209 0.410156 1.5542e-313 3.87451 0.408384 0 3.88184 0.402918 1.5542e-313 3.89648 0.391352 0 3.89132 0.395508 1.5542e-313 3.88916 0.397242 0 3.88195 0.402832 1.5542e-313 3.88184 0.402918 0 3.88195 0.402832 1.5542e-313 3.88916 0.397209 0 3.89132 0.395508 1.5542e-313 3.91113 0.378878 0 3.90887 0.380859 1.5542e-313 3.92578 0.365379 0 3.92491 0.366211 1.5542e-313 3.91846 0.372253 0 3.91706 0.373535 1.5542e-313 3.91113 0.378824 0 3.917 0.373535 1.5542e-313 3.91846 0.372203 0 3.92484 0.366211 1.5542e-313 3.90381 0.385254 0 3.90028 0.388184 1.5542e-313 3.89648 0.391285 0 3.90028 0.388184 1.5542e-313 3.90381 0.385177 0 3.90882 0.380859 1.5542e-313 3.86719 0.41362 0 3.87201 0.410156 1.5542e-313 3.93311 0.358171 0 3.93239 0.358887 1.5542e-313 3.92578 0.365314 0 3.93236 0.358887 1.5542e-313 3.93311 0.358144 0 3.93956 0.351562 1.5542e-313 4.08062 0 0 4.08041 0.0146484 3.10839e-313 4.08038 0.0146484 0 4.08011 0.0219727 1.5542e-313 4.08012 0.0219727 0 4.07975 0.0292969 1.5542e-313 4.07959 0.0318326 0 4.07928 0.0366211 1.5542e-313 4.07928 0.0366211 0 4.0787 0.0439453 1.5542e-313 4.07959 0.0318298 0 4.07975 0.0292969 1.5542e-313 4.0787 0.0439453 0 4.07801 0.0512695 1.5542e-313 4.07801 0.0512695 0 4.07721 0.0585938 1.5542e-313 4.07227 0.0913695 0 4.07156 0.0952148 1.5542e-313 4.07155 0.0952148 0 4.0701 0.102539 1.5542e-313 4.07014 0.102539 0 4.06691 0.117188 3.10839e-313 4.0772 0.0585938 0 4.07629 0.065918 1.5542e-313 4.07629 0.065918 0 4.07527 0.0732422 1.5542e-313 4.07531 0.0732422 0 4.07294 0.0878906 3.10839e-313 4.07227 0.0912303 0 4.0729 0.0878906 3.10839e-313 4.04297 0.192298 0 4.04073 0.197754 1.5542e-313 4.04073 0.197754 0 4.03759 0.205078 1.5542e-313 4.02832 0.225039 0 4.02734 0.227051 1.5542e-313 4.02732 0.227051 0 4.0236 0.234375 1.5542e-313 4.03564 0.209437 0 4.03432 0.212402 1.5542e-313 4.03431 0.212402 0 4.03088 0.219727 1.5542e-313 4.03564 0.209396 0 4.03758 0.205078 1.5542e-313 4.02832 0.224973 0 4.03088 0.219727 1.5542e-313 4.06494 0.125108 0 4.0632 0.131836 1.5542e-313 4.06687 0.117188 0 4.06509 0.124512 1.5542e-313 4.06494 0.125106 0 4.0651 0.124512 1.5542e-313 4.06322 0.131836 0 4.05908 0.146484 3.10839e-313 4.05762 0.151191 0 4.05681 0.153809 1.5542e-313 4.05681 0.153809 0 4.05444 0.161133 1.5542e-313 4.05029 0.173137 0 4.04935 0.175781 1.5542e-313 4.05444 0.161133 0 4.05195 0.168457 1.5542e-313 4.05029 0.1731 0 4.05195 0.168457 1.5542e-313 4.05762 0.151146 0 4.05905 0.146484 1.5542e-313 4.04934 0.175781 0 4.0466 0.183105 1.5542e-313 4.0466 0.183105 0 4.04373 0.19043 1.5542e-313 4.04297 0.192238 0 4.04373 0.19043 3.10839e-313 4.01367 0.252624 0 4.01154 0.256348 1.5542e-313 4.01153 0.256348 0 4.00718 0.263672 1.5542e-313 3.99902 0.276704 0 3.99799 0.27832 1.5542e-313 3.9917 0.287644 0 3.98801 0.292969 1.5542e-313 3.99796 0.27832 0 3.99308 0.285645 1.5542e-313 3.9917 0.287647 0 3.99305 0.285645 1.5542e-313 4.00635 0.265023 0 4.00266 0.270996 1.5542e-313 3.99902 0.27665 0 4.00265 0.270996 1.5542e-313 4.00635 0.26502 0 4.00717 0.263672 1.5542e-313 4.021 0.23934 0 4.01975 0.241699 1.5542e-313 4.01974 0.241699 0 4.01571 0.249023 1.5542e-313 4.021 0.239301 0 4.0236 0.234375 1.5542e-313 4.01367 0.252568 0 4.0157 0.249023 1.5542e-313 3.98438 0.297991 0 3.98799 0.292969 1.5542e-313 3.75 0.474534 0 3.75732 0.471848 1.5542e-313 3.75732 0.471848 0 3.76465 0.469026 1.5542e-313 3.76465 0.469022 0 3.76532 0.46875 1.5542e-313         </DataArray>
      </Points>
      <Cells>
        <DataArray type="Int32" Name="connectivity" format="ascii">
0 1 2 3 4 5 6 7 8 9 10 11 12 13 14 15 16 17 18 19 20 21 22 23 24 25 26 27 28 29 30 31 32 33 34 35 36 37 38 39 40 41 42 43 44 45 46 47 48 49 50 51 52 53 54 55 56 57 58 59 60 61 62 63 64 65 66 67 68 69 70 71 72 73 74 75 76 77 78 79 80 81 82 83 84 85 86 87 88 89 90 91 92 93 94 95 96 97 98 99 100 101 102 103 104 105 106 107 108 109 110 111 112 113 114 115 116 117 118 119 120 121 122 123 124 125 126 127 128 129 130 131 132 133 134 135 136 137 138 139 140 141 142 143 144 145 146 147 148 149 150 151 152 153 154 155 156 157 158 159 160 161 162 163 164 165 166 167 168 169 170 171 172 173 174 175 176 177 178 179 180 181 182 183 184 185 186 187 188 189 190 191 192 193 194 195 196 197 198 199 200 201 202 203 204 205 206 207 208 209 210 211         </DataArray>
        <DataArray type="Int32" Name="offsets" format="ascii">
2 4 6 8 10 12 14 16 18 20 22 24 26 28 30 32 34 36 38 40 42 44 46 48 50 52 54 56 58 60 62 64 66 68 70 72 74 76 78 80 82 84 86 88 90 92 94 96 98 100 102 104 106 108 110 112 114 116 118 120 122 124 126 128 130 132 134 136 138 140 142 144 146 148 150 152 154 156 158 160 162 164 166 168 170 172 174 176 178 180 182 184 186 188 190 192 194 196 198 200 202 204 206 208 210 212         </DataArray>
        <DataArray type="UInt8" Name="types" format="ascii">
7 7 7 7 7 7 7 7 7 7 7 7 7 7 7 7 7 7 7 7 7 7 7 7 7 7 7 7 7 7 7 7 7 7 7 7 7 7 7 7 7 7 7 7 7 7 7 7 7 7 7 7 7 7 7 7 7 7 7 7 7 7 7 7 7 7 7 7 7 7 7 7 7 7 7 7 7 7 7 7 7 7 7 7 7 7 7 7 7 7 7 7 7 7 7 7 7 7 7 7 7 7 7 7 7 7 
        </DataArray>
      </Cells>
      <PointData>
      </PointData>
    </Piece>
  </UnstructuredGrid>
</VTKFile>
