<?xml version="1.0"?>
<VTKFile type="UnstructuredGrid" version="0.1" byte_order="LittleEndian">
  <UnstructuredGrid>
    <Piece NumberOfPoints="44" NumberOfCells="22">
			 <CellData Scalars="scalars">
				 <DataArray type="Float64" Name="f" format="ascii">
0.860794
0.188965
0.964988
0.413852
0.00207639
0.705633
0.101994
0.932514
0.392463
0.00551461
0.776557
0.208793
0.99322
0.65124
0.146589
0.983741
0.637167
0.175886
0.996031
0.73302
0.321294
0.0206359
				 </DataArray>
				 <DataArray type="Float64" NumberOfComponents="3" Name="u.x" format="ascii">
0.337944 -1.25965 0.
0.323602 -1.27257 0.
0.258621 -1.23352 0.
0.239376 -1.25493 0.
0.247931 -1.26623 0.
0.156579 -1.25933 0.
0.139864 -1.22844 0.
0.0599635 -1.19531 0.
0.0422941 -1.18846 0.
0.0489447 -1.19207 0.
-0.0351175 -1.18168 0.
-0.057395 -1.14527 0.
-0.12886 -1.11185 0.
-0.146227 -1.13485 0.
-0.165128 -1.08884 0.
-0.248711 -1.06041 0.
-0.269048 -1.06493 0.
-0.288439 -1.00887 0.
-0.368041 -0.983176 0.
-0.386001 -0.993233 0.
-0.405719 -0.931888 0.
-0.407162 -0.905365 0.
				 </DataArray>
			 </CellData>
      <Points>
        <DataArray type="Float32" Name="vertices" NumberOfComponents="3" format="ascii">
5.26908 0.46875 0 5.27344 0.472176 1.5542e-313 5.27344 0.472156 0 5.27861 0.476074 1.5542e-313 5.2785 0.476074 0 5.28076 0.477737 1.5542e-313 5.28076 0.477719 0 5.28809 0.483015 1.5542e-313 5.28809 0.483007 0 5.28866 0.483398 1.5542e-313 5.28864 0.483398 0 5.29541 0.488065 1.5542e-313 5.29541 0.48804 0 5.29949 0.490723 1.5542e-313 5.29941 0.490723 0 5.30273 0.492903 1.5542e-313 5.30273 0.492879 0 5.31006 0.497466 1.5542e-313 5.31006 0.497455 0 5.31106 0.498047 1.5542e-313 5.31104 0.498047 0 5.31738 0.501824 1.5542e-313 5.31738 0.501812 0 5.32368 0.505371 1.5542e-313 5.32357 0.505371 0 5.32471 0.506011 1.5542e-313 5.32471 0.505963 0 5.33203 0.509888 1.5542e-313 5.33203 0.509871 0 5.3376 0.512695 1.5542e-313 5.3375 0.512695 0 5.33936 0.513636 1.5542e-313 5.33936 0.513598 0 5.34668 0.517108 1.5542e-313 5.34668 0.517099 0 5.35314 0.52002 1.5542e-313 5.35303 0.52002 0 5.354 0.520458 1.5542e-313 5.354 0.520417 0 5.36133 0.523532 1.5542e-313 5.36133 0.523532 0 5.36865 0.526449 1.5542e-313 5.36865 0.526437 0 5.37109 0.527344 1.5542e-313         </DataArray>
      </Points>
      <Cells>
        <DataArray type="Int32" Name="connectivity" format="ascii">
0 1 2 3 4 5 6 7 8 9 10 11 12 13 14 15 16 17 18 19 20 21 22 23 24 25 26 27 28 29 30 31 32 33 34 35 36 37 38 39 40 41 42 43         </DataArray>
        <DataArray type="Int32" Name="offsets" format="ascii">
2 4 6 8 10 12 14 16 18 20 22 24 26 28 30 32 34 36 38 40 42 44         </DataArray>
        <DataArray type="UInt8" Name="types" format="ascii">
7 7 7 7 7 7 7 7 7 7 7 7 7 7 7 7 7 7 7 7 7 7 
        </DataArray>
      </Cells>
      <PointData>
      </PointData>
    </Piece>
  </UnstructuredGrid>
</VTKFile>
