<?xml version="1.0"?>
<VTKFile type="UnstructuredGrid" version="0.1" byte_order="LittleEndian">
  <UnstructuredGrid>
    <Piece NumberOfPoints="58" NumberOfCells="29">
			 <CellData Scalars="scalars">
				 <DataArray type="Float64" Name="f" format="ascii">
0.534684
0.537727
0.548315
0.57034
0.603728
0.644399
0.690353
0.745551
0.422647
0.503438
0.329356
0.846515
0.909261
0.999451
0.0162988
0.228998
0.399879
0.579648
0.768502
0.954679
0.0109265
0.171282
0.386056
0.609984
0.843028
0.996982
0.0880999
0.336125
0.596898
				 </DataArray>
				 <DataArray type="Float64" NumberOfComponents="3" Name="u.x" format="ascii">
2.67036 0.0163692 0.
2.62829 0.016497 0.
2.65294 0.0110673 0.
2.68186 0.00138778 0.
2.67513 -0.0166493 0.
2.69426 -0.0178845 0.
2.71058 -0.0410104 0.
2.71064 -0.0566914 0.
2.69943 -0.0695523 0.
2.69558 -0.0799588 0.
2.70251 -0.101295 0.
2.67234 -0.108553 0.
2.67294 -0.109875 0.
2.67216 -0.112098 0.
2.68213 -0.118956 0.
2.69156 -0.118838 0.
2.67916 -0.128118 0.
2.66807 -0.127311 0.
2.66601 -0.128397 0.
2.66606 -0.131404 0.
2.67161 -0.134602 0.
2.66336 -0.133879 0.
2.65609 -0.143011 0.
2.65909 -0.14769 0.
2.65691 -0.158707 0.
2.64517 -0.172085 0.
2.65884 -0.186523 0.
2.65014 -0.196219 0.
2.63985 -0.208367 0.
				 </DataArray>
			 </CellData>
      <Points>
        <DataArray type="Float32" Name="vertices" NumberOfComponents="3" format="ascii">
17.1426 0 0 17.1426 0.00732422 1.5542e-313 17.1426 0.00732422 0 17.1426 0.0146484 1.5542e-313 17.1426 0.0146484 0 17.1427 0.0219727 1.5542e-313 17.1427 0.0219727 0 17.143 0.0292969 1.5542e-313 17.143 0.0292969 0 17.1432 0.0366211 1.5542e-313 17.1432 0.0366211 0 17.1436 0.0439453 1.5542e-313 17.1435 0.0439453 0 17.1439 0.0512695 1.5542e-313 17.1439 0.0512695 0 17.1444 0.0585938 1.5542e-313 17.1443 0.0585938 0 17.1454 0.0732422 3.10839e-313 17.1454 0.0732422 0 17.1467 0.0878906 3.10839e-313 17.1466 0.0878906 0 17.15 0.117188 6.21678e-313 17.1501 0.117188 0 17.1521 0.131836 3.10839e-313 17.1521 0.131836 0 17.1532 0.13916 1.5542e-313 17.1532 0.13916 0 17.1533 0.139767 1.5542e-313 17.1533 0.139774 0 17.1544 0.146484 3.10839e-313 17.1544 0.146484 0 17.1556 0.153809 1.5542e-313 17.1556 0.153809 0 17.1569 0.161133 1.5542e-313 17.1569 0.161133 0 17.1582 0.168457 1.5542e-313 17.1582 0.168457 0 17.1597 0.175781 1.5542e-313 17.1597 0.175781 0 17.1606 0.180695 1.5542e-313 17.1606 0.180693 0 17.1611 0.183105 1.5542e-313 17.1611 0.183105 0 17.1627 0.19043 1.5542e-313 17.1627 0.19043 0 17.1643 0.197754 1.5542e-313 17.1643 0.197754 0 17.1659 0.205078 1.5542e-313 17.1659 0.205078 0 17.1677 0.212402 1.5542e-313 17.1677 0.212402 0 17.168 0.213548 1.5542e-313 17.168 0.213535 0 17.1695 0.219727 1.5542e-313 17.1695 0.219727 0 17.1714 0.227051 1.5542e-313 17.1714 0.227051 0 17.1733 0.234375 1.5542e-313         </DataArray>
      </Points>
      <Cells>
        <DataArray type="Int32" Name="connectivity" format="ascii">
0 1 2 3 4 5 6 7 8 9 10 11 12 13 14 15 16 17 18 19 20 21 22 23 24 25 26 27 28 29 30 31 32 33 34 35 36 37 38 39 40 41 42 43 44 45 46 47 48 49 50 51 52 53 54 55 56 57         </DataArray>
        <DataArray type="Int32" Name="offsets" format="ascii">
2 4 6 8 10 12 14 16 18 20 22 24 26 28 30 32 34 36 38 40 42 44 46 48 50 52 54 56 58         </DataArray>
        <DataArray type="UInt8" Name="types" format="ascii">
7 7 7 7 7 7 7 7 7 7 7 7 7 7 7 7 7 7 7 7 7 7 7 7 7 7 7 7 7 
        </DataArray>
      </Cells>
      <PointData>
      </PointData>
    </Piece>
  </UnstructuredGrid>
</VTKFile>
