<?xml version="1.0"?>
<VTKFile type="UnstructuredGrid" version="0.1" byte_order="LittleEndian">
  <UnstructuredGrid>
    <Piece NumberOfPoints="42" NumberOfCells="21">
			 <CellData Scalars="scalars">
				 <DataArray type="Float64" Name="f" format="ascii">
0.0847612
0.961912
0.594281
0.165986
0.996688
0.751193
0.359758
0.0402077
0.947882
0.63582
0.30281
0.0333367
0.955314
0.692886
0.415324
0.155747
0.00205315
0.911947
0.689881
0.483369
0.294315
				 </DataArray>
				 <DataArray type="Float64" NumberOfComponents="3" Name="u.x" format="ascii">
-0.0647913 -0.494361 0.
-0.110733 -0.496008 0.
-0.111839 -0.490481 0.
-0.109557 -0.459873 0.
-0.150087 -0.459404 0.
-0.148567 -0.463481 0.
-0.151639 -0.433964 0.
-0.138557 -0.413148 0.
-0.195613 -0.417279 0.
-0.196916 -0.404685 0.
-0.196527 -0.371669 0.
-0.184072 -0.351897 0.
-0.241632 -0.359262 0.
-0.244538 -0.347416 0.
-0.242464 -0.321304 0.
-0.238506 -0.291172 0.
-0.22747 -0.281959 0.
-0.292588 -0.287059 0.
-0.300685 -0.266875 0.
-0.304156 -0.242818 0.
-0.304688 -0.21682 0.
				 </DataArray>
			 </CellData>
      <Points>
        <DataArray type="Float32" Name="vertices" NumberOfComponents="3" format="ascii">
3.63281 0.466698 0 3.63724 0.46875 1.5542e-313 3.63717 0.46875 0 3.64014 0.470125 1.5542e-313 3.64014 0.470103 0 3.64746 0.47334 1.5542e-313 3.64746 0.473334 0 3.65396 0.476074 1.5542e-313 3.65387 0.476074 0 3.65479 0.476461 1.5542e-313 3.65479 0.476426 0 3.66211 0.479367 1.5542e-313 3.66211 0.479366 0 3.66943 0.482161 1.5542e-313 3.66943 0.482149 0 3.67289 0.483398 1.5542e-313 3.67283 0.483398 0 3.67676 0.484821 1.5542e-313 3.67676 0.484811 0 3.68408 0.487321 1.5542e-313 3.68408 0.48732 0 3.69141 0.48969 1.5542e-313 3.69141 0.489678 0 3.69483 0.490723 1.5542e-313 3.69477 0.490723 0 3.69873 0.491932 1.5542e-313 3.69873 0.491922 0 3.70605 0.494022 1.5542e-313 3.70605 0.494021 0 3.71338 0.495988 1.5542e-313 3.71338 0.495988 0 3.7207 0.497824 1.5542e-313 3.7207 0.49782 0 3.72168 0.498047 1.5542e-313 3.72166 0.498047 0 3.72803 0.49953 1.5542e-313 3.72803 0.49953 0 3.73535 0.501107 1.5542e-313 3.73535 0.501106 0 3.74268 0.502555 1.5542e-313 3.74268 0.502555 0 3.75 0.503876 1.5542e-313         </DataArray>
      </Points>
      <Cells>
        <DataArray type="Int32" Name="connectivity" format="ascii">
0 1 2 3 4 5 6 7 8 9 10 11 12 13 14 15 16 17 18 19 20 21 22 23 24 25 26 27 28 29 30 31 32 33 34 35 36 37 38 39 40 41         </DataArray>
        <DataArray type="Int32" Name="offsets" format="ascii">
2 4 6 8 10 12 14 16 18 20 22 24 26 28 30 32 34 36 38 40 42         </DataArray>
        <DataArray type="UInt8" Name="types" format="ascii">
7 7 7 7 7 7 7 7 7 7 7 7 7 7 7 7 7 7 7 7 7 
        </DataArray>
      </Cells>
      <PointData>
      </PointData>
    </Piece>
  </UnstructuredGrid>
</VTKFile>
