<?xml version="1.0"?>
<VTKFile type="UnstructuredGrid" version="0.1" byte_order="LittleEndian">
  <UnstructuredGrid>
    <Piece NumberOfPoints="132" NumberOfCells="66">
			 <CellData Scalars="scalars">
				 <DataArray type="Float64" Name="f" format="ascii">
0.999875
0.214211
0.222836
0.240377
0.265272
0.158539
0.205593
0.269456
0.350369
0.751889
0.881486
0.977807
0.0206028
0.17789
0.374378
0.587793
0.818783
0.971442
0.0350966
0.264529
0.531859
0.808605
0.995404
0.0983031
0.388205
0.693353
0.964079
0.0443663
0.332601
0.665951
0.960713
0.048046
0.361327
0.724352
0.988753
0.108938
0.480829
0.867883
0.00701414
0.279927
0.696094
0.989751
0.133825
0.561305
0.948063
0.062714
0.471421
0.908976
0.035739
0.429472
0.894887
0.0319125
0.435672
0.910986
0.0474797
0.493948
0.950062
0.0944235
0.607909
0.989735
0.198054
0.776819
0.00611629
0.39553
0.931573
0.0948298
				 </DataArray>
				 <DataArray type="Float64" NumberOfComponents="3" Name="u.x" format="ascii">
2.75553 -0.016267 0.
2.93382 -0.0381415 0.
2.74565 -0.0249951 0.
2.7643 -0.0153928 0.
2.75545 -0.0196646 0.
2.75831 -0.0207309 0.
2.75974 -0.0352949 0.
2.74944 -0.0477124 0.
2.75884 -0.0569029 0.
2.73809 -0.0646029 0.
2.73764 -0.0774269 0.
2.7371 -0.0913008 0.
2.75031 -0.107061 0.
2.74273 -0.112116 0.
2.7311 -0.114639 0.
2.72912 -0.120571 0.
2.71972 -0.12101 0.
2.72988 -0.133203 0.
2.75497 -0.148356 0.
2.71653 -0.163095 0.
2.71836 -0.163198 0.
2.71816 -0.158779 0.
2.71375 -0.165487 0.
2.72426 -0.18055 0.
2.71215 -0.181407 0.
2.69234 -0.190489 0.
2.67842 -0.194863 0.
2.68751 -0.200934 0.
2.67717 -0.208649 0.
2.67807 -0.217884 0.
2.67105 -0.228713 0.
2.6807 -0.255139 0.
2.67437 -0.257491 0.
2.6725 -0.266896 0.
2.64626 -0.28024 0.
2.65992 -0.302584 0.
2.64658 -0.312544 0.
2.63172 -0.326004 0.
2.64144 -0.363266 0.
2.62091 -0.366586 0.
2.61633 -0.37708 0.
2.57548 -0.39329 0.
2.59245 -0.423424 0.
2.57581 -0.435685 0.
2.54615 -0.449453 0.
2.55596 -0.490113 0.
2.5408 -0.494985 0.
2.51371 -0.515303 0.
2.52867 -0.567531 0.
2.48546 -0.570432 0.
2.45566 -0.582646 0.
2.46087 -0.629255 0.
2.42795 -0.629091 0.
2.39957 -0.647896 0.
2.41142 -0.717014 0.
2.38305 -0.717076 0.
2.32821 -0.734586 0.
2.34319 -0.796478 0.
2.31364 -0.804111 0.
2.2312 -0.820225 0.
2.24959 -0.873976 0.
2.23814 -0.89503 0.
2.24081 -0.994561 0.
2.16098 -0.981768 0.
2.09722 -0.990992 0.
2.10976 -1.07676 0.
				 </DataArray>
			 </CellData>
      <Points>
        <DataArray type="Float32" Name="vertices" NumberOfComponents="3" format="ascii">
36.9287 0 0 36.9287 0.00248997 3.10839e-313 36.9303 0 0 36.9303 0.00732422 1.5542e-313 36.9303 0.00732422 0 36.9304 0.0146484 1.5542e-313 36.9304 0.0146484 0 36.9305 0.0219727 1.5542e-313 36.9305 0.0219727 0 36.9308 0.0292969 1.5542e-313 36.9307 0.0292969 0 36.9313 0.0439453 3.10839e-313 36.9313 0.0439453 0 36.9321 0.0585938 3.10839e-313 36.9321 0.0585938 0 36.9332 0.0732422 3.10839e-313 36.9332 0.0732422 0 36.9345 0.0878906 3.10839e-313 36.9344 0.0878906 0 36.9377 0.117188 6.21678e-313 36.9377 0.117188 0 36.942 0.146484 6.21678e-313 36.9421 0.146484 0 36.9434 0.153949 3.10839e-313 36.9434 0.153941 0 36.9446 0.161133 3.10839e-313 36.9446 0.161133 0 36.9473 0.175781 3.10839e-313 36.9473 0.175781 0 36.9503 0.19043 3.10839e-313 36.9503 0.19043 0 36.9536 0.205078 3.10839e-313 36.9536 0.205078 0 36.9571 0.219727 3.10839e-313 36.9571 0.219727 0 36.958 0.223203 1.5542e-313 36.958 0.223197 0 36.959 0.227051 1.5542e-313 36.959 0.227051 0 36.9609 0.234375 1.5542e-313 36.9609 0.234375 0 36.9629 0.241699 1.5542e-313 36.9629 0.241699 0 36.965 0.249023 1.5542e-313 36.965 0.249023 0 36.9653 0.250328 1.5542e-313 36.9653 0.250315 0 36.9671 0.256348 1.5542e-313 36.9671 0.256348 0 36.9693 0.263672 1.5542e-313 36.9693 0.263672 0 36.9715 0.270996 1.5542e-313 36.9715 0.270996 0 36.9727 0.274468 1.5542e-313 36.9727 0.274461 0 36.9739 0.27832 1.5542e-313 36.9739 0.27832 0 36.9763 0.285645 1.5542e-313 36.9763 0.285645 0 36.9788 0.292969 1.5542e-313 36.9788 0.292969 0 36.98 0.296451 1.5542e-313 36.98 0.296443 0 36.9813 0.300293 1.5542e-313 36.9813 0.300293 0 36.9839 0.307617 1.5542e-313 36.9839 0.307617 0 36.9866 0.314941 1.5542e-313 36.9866 0.314941 0 36.9873 0.316728 1.5542e-313 36.9873 0.316707 0 36.9894 0.322266 1.5542e-313 36.9894 0.322266 0 36.9922 0.32959 1.5542e-313 36.9922 0.32959 0 36.9946 0.335546 1.5542e-313 36.9946 0.335542 0 36.9952 0.336914 1.5542e-313 36.9952 0.336914 0 36.9982 0.344238 1.5542e-313 36.9982 0.344238 0 37.0013 0.351562 1.5542e-313 37.0013 0.351562 0 37.002 0.353157 1.5542e-313 37.002 0.353126 0 37.0044 0.358887 1.5542e-313 37.0044 0.358887 0 37.0077 0.366211 1.5542e-313 37.0077 0.366211 0 37.0093 0.36971 1.5542e-313 37.0093 0.36969 0 37.011 0.373535 1.5542e-313 37.011 0.373535 0 37.0144 0.380859 1.5542e-313 37.0144 0.380859 0 37.0166 0.385375 1.5542e-313 37.0166 0.385354 0 37.018 0.388184 1.5542e-313 37.0179 0.388184 0 37.0215 0.395508 1.5542e-313 37.0215 0.395508 0 37.0239 0.400242 1.5542e-313 37.0239 0.400223 0 37.0252 0.402832 1.5542e-313 37.0252 0.402832 0 37.029 0.410156 1.5542e-313 37.029 0.410156 0 37.0312 0.414405 1.5542e-313 37.0312 0.414378 0 37.0329 0.41748 1.5542e-313 37.0329 0.41748 0 37.0369 0.424805 1.5542e-313 37.0368 0.424805 0 37.0386 0.427906 1.5542e-313 37.0386 0.427864 0 37.0409 0.432129 1.5542e-313 37.0409 0.432129 0 37.0451 0.439453 1.5542e-313 37.0451 0.439453 0 37.0459 0.440826 1.5542e-313 37.0459 0.440763 0 37.0494 0.446777 1.5542e-313 37.0494 0.446777 0 37.0532 0.453074 1.5542e-313 37.0532 0.453055 0 37.0538 0.454102 1.5542e-313 37.0538 0.454102 0 37.0584 0.461426 1.5542e-313 37.0584 0.461426 0 37.0605 0.464817 1.5542e-313 37.0605 0.464758 0 37.0631 0.46875 1.5542e-313         </DataArray>
      </Points>
      <Cells>
        <DataArray type="Int32" Name="connectivity" format="ascii">
0 1 2 3 4 5 6 7 8 9 10 11 12 13 14 15 16 17 18 19 20 21 22 23 24 25 26 27 28 29 30 31 32 33 34 35 36 37 38 39 40 41 42 43 44 45 46 47 48 49 50 51 52 53 54 55 56 57 58 59 60 61 62 63 64 65 66 67 68 69 70 71 72 73 74 75 76 77 78 79 80 81 82 83 84 85 86 87 88 89 90 91 92 93 94 95 96 97 98 99 100 101 102 103 104 105 106 107 108 109 110 111 112 113 114 115 116 117 118 119 120 121 122 123 124 125 126 127 128 129 130 131         </DataArray>
        <DataArray type="Int32" Name="offsets" format="ascii">
2 4 6 8 10 12 14 16 18 20 22 24 26 28 30 32 34 36 38 40 42 44 46 48 50 52 54 56 58 60 62 64 66 68 70 72 74 76 78 80 82 84 86 88 90 92 94 96 98 100 102 104 106 108 110 112 114 116 118 120 122 124 126 128 130 132         </DataArray>
        <DataArray type="UInt8" Name="types" format="ascii">
7 7 7 7 7 7 7 7 7 7 7 7 7 7 7 7 7 7 7 7 7 7 7 7 7 7 7 7 7 7 7 7 7 7 7 7 7 7 7 7 7 7 7 7 7 7 7 7 7 7 7 7 7 7 7 7 7 7 7 7 7 7 7 7 7 7 
        </DataArray>
      </Cells>
      <PointData>
      </PointData>
    </Piece>
  </UnstructuredGrid>
</VTKFile>
