<?xml version="1.0"?>
<VTKFile type="UnstructuredGrid" version="0.1" byte_order="LittleEndian">
  <UnstructuredGrid>
    <Piece NumberOfPoints="186" NumberOfCells="93">
			 <CellData Scalars="scalars">
				 <DataArray type="Float64" Name="f" format="ascii">
0.606762
0.00484234
0.596163
0.00622994
0.628733
0.0154523
0.700302
0.0431964
0.797985
0.106644
0.899886
0.23316
0.978692
0.456562
0.00592867
0.73499
0.118954
0.944227
0.421514
0.0107079
0.805628
0.247215
0.998647
0.70978
0.210813
0.998386
0.741049
0.306147
0.0125557
0.891441
0.533307
0.195331
0.00206803
0.886763
0.613468
0.369158
0.155613
0.00944213
0.96288
0.81864
0.695502
0.603029
0.540901
0.508592
0.505663
0.531971
0.587705
0.673317
0.000887843
0.789334
0.935089
0.112508
0.319698
0.0735421
0.249911
0.136121
0.848207
0.922692
0.0407641
0.0330949
0.443989
0.0534886
0.518731
0.919058
0.120399
0.672326
0.282078
0.870886
0.999375
0.964741
0.0014171
0.0646222
0.678911
0.25009
0.562988
0.99241
0.883383
0.438871
0.981914
0.374638
0.380846
0.394556
0.416402
0.731738
0.776027
0.639336
0.708512
0.914298
0.00184324
0.0718018
0.185372
0.3068
0.965966
				 </DataArray>
				 <DataArray type="Float64" NumberOfComponents="3" Name="u.x" format="ascii">
0.872899 -1.50374 0.
0.856546 -1.5322 0.
0.77259 -1.50698 0.
0.757575 -1.55176 0.
0.650763 -1.52246 0.
0.635461 -1.56593 0.
0.561439 -1.53547 0.
0.542597 -1.59393 0.
0.464092 -1.54897 0.
0.428206 -1.58451 0.
0.355744 -1.52743 0.
0.31453 -1.56575 0.
0.2487 -1.49868 0.
0.21013 -1.53702 0.
0.198327 -1.57223 0.
0.102545 -1.53995 0.
0.0626266 -1.52218 0.
-0.0284338 -1.46494 0.
-0.0624327 -1.46808 0.
-0.0755859 -1.48882 0.
-0.180133 -1.45311 0.
-0.226884 -1.4122 0.
-0.319701 -1.35509 0.
-0.353886 -1.38811 0.
-0.396149 -1.32357 0.
-0.497635 -1.27444 0.
-0.532922 -1.29477 0.
-0.571629 -1.20905 0.
-0.585897 -1.18445 0.
-0.724816 -1.15527 0.
-0.76998 -1.09443 0.
-0.795259 -0.997895 0.
-0.807555 -0.970241 0.
-0.96006 -0.952056 0.
-1.00494 -0.87204 0.
-1.03441 -0.772672 0.
-1.04951 -0.663453 0.
-1.06295 -0.584939 0.
-1.23718 -0.559642 0.
-1.27517 -0.475704 0.
-1.30614 -0.371677 0.
-1.32969 -0.265491 0.
-1.34538 -0.156207 0.
-1.35473 -0.0425409 0.
-1.35718 0.0746379 0.
-1.355 0.191581 0.
-1.34993 0.303496 0.
-1.34625 0.409085 0.
-1.1871 0.601994 0.
-1.34416 0.510393 0.
-1.33368 0.602065 0.
-1.20042 0.696727 0.
-1.19429 0.816821 0.
0.628034 1.96095 0.
0.740646 1.95943 0.
0.690872 1.96309 0.
0.571285 1.97974 0.
0.644632 1.9603 0.
1.22264 1.84692 0.
1.53085 1.58688 0.
1.44344 1.61496 0.
1.45108 1.66686 0.
1.36768 1.68971 0.
1.38693 1.63452 0.
1.33673 1.71192 0.
1.24848 1.73642 0.
1.20228 1.75699 0.
1.15124 1.78347 0.
1.16 1.73768 0.
1.27942 1.69938 0.
0.956115 1.93607 0.
0.978204 1.91782 0.
0.899395 1.93527 0.
0.97707 1.86257 0.
1.09069 1.86891 0.
0.968697 1.84391 0.
0.932382 1.86704 0.
0.799031 1.96265 0.
0.713802 1.93928 0.
2.34991 0.0180608 0.
2.33887 0.0557085 0.
2.32942 0.0917534 0.
2.31955 0.128582 0.
2.27925 0.171713 0.
2.25996 0.233878 0.
2.27453 0.282807 0.
2.26272 0.311364 0.
2.20823 0.35206 0.
2.28516 0.403972 0.
2.27077 0.436981 0.
2.23841 0.469403 0.
2.23862 0.497704 0.
2.22201 0.400015 0.
				 </DataArray>
			 </CellData>
      <Points>
        <DataArray type="Float32" Name="vertices" NumberOfComponents="3" format="ascii">
7.22262 0.46875 0 7.229 0.475357 1.5542e-313 7.229 0.475349 0 7.22972 0.476074 1.5542e-313 7.2297 0.476074 0 7.23633 0.48261 1.5542e-313 7.23633 0.482597 0 7.23716 0.483398 1.5542e-313 7.23714 0.483398 0 7.24365 0.489518 1.5542e-313 7.24365 0.489494 0 7.245 0.490723 1.5542e-313 7.24498 0.490723 0 7.25098 0.496083 1.5542e-313 7.25098 0.496051 0 7.2533 0.498047 1.5542e-313 7.25324 0.498047 0 7.2583 0.502331 1.5542e-313 7.2583 0.502337 0 7.26207 0.505371 1.5542e-313 7.26194 0.505371 0 7.26562 0.50829 1.5542e-313 7.26562 0.508292 0 7.27131 0.512695 1.5542e-313 7.27121 0.512695 0 7.27295 0.514009 1.5542e-313 7.27295 0.513982 0 7.28027 0.519369 1.5542e-313 7.28027 0.519356 0 7.28123 0.52002 1.5542e-313 7.28121 0.52002 0 7.2876 0.52447 1.5542e-313 7.2876 0.524442 0 7.292 0.527344 1.5542e-313 7.2919 0.527344 0 7.29492 0.529326 1.5542e-313 7.29492 0.529298 0 7.30225 0.533864 1.5542e-313 7.30225 0.533847 0 7.30364 0.534668 1.5542e-313 7.30361 0.534668 0 7.30957 0.538169 1.5542e-313 7.30957 0.538161 0 7.31649 0.541992 1.5542e-313 7.31638 0.541992 0 7.31689 0.542274 1.5542e-313 7.31689 0.54222 0 7.32422 0.546016 1.5542e-313 7.32422 0.546007 0 7.33105 0.549316 1.5542e-313 7.33095 0.549316 0 7.33154 0.549606 1.5542e-313 7.33154 0.549559 0 7.33887 0.552867 1.5542e-313 7.33887 0.552866 0 7.34619 0.555931 1.5542e-313 7.34619 0.555919 0 7.34806 0.556641 1.5542e-313 7.34803 0.556641 0 7.35352 0.558762 1.5542e-313 7.35352 0.558761 0 7.36084 0.561356 1.5542e-313 7.36084 0.561354 0 7.36816 0.563714 1.5542e-313 7.36816 0.563711 0 7.36904 0.563965 1.5542e-313 7.36903 0.563965 0 7.37549 0.565845 1.5542e-313 7.37549 0.565844 0 7.38281 0.567747 1.5542e-313 7.38281 0.567747 0 7.39014 0.569424 1.5542e-313 7.39014 0.569423 0 7.39746 0.570876 1.5542e-313 7.39746 0.570876 0 7.39991 0.571289 1.5542e-313 7.39992 0.571289 0 7.40479 0.572108 1.5542e-313 7.40479 0.572111 0 7.41211 0.573124 1.5542e-313 7.41211 0.573124 0 7.41943 0.573914 1.5542e-313 7.41943 0.573913 0 7.42676 0.57448 1.5542e-313 7.42676 0.574479 0 7.43408 0.574825 1.5542e-313 7.43408 0.574824 0 7.44141 0.574953 1.5542e-313 7.44141 0.574953 0 7.44873 0.574867 1.5542e-313 7.44873 0.574867 0 7.45605 0.574567 1.5542e-313 7.45605 0.574568 0 7.46338 0.57405 1.5542e-313 7.46338 0.574051 0 7.4707 0.573313 1.5542e-313 7.48535 0.571165 0 7.48458 0.571289 1.5542e-313 7.4707 0.573313 0 7.47803 0.572351 1.5542e-313 7.47803 0.57235 0 7.48459 0.571289 1.5542e-313 7.48535 0.571168 0 7.49268 0.569762 1.5542e-313 7.49268 0.569763 0 7.5 0.568133 1.5542e-313 7.66113 0.465765 0 7.65849 0.46875 1.5542e-313 7.67578 0.448348 0 7.67112 0.454102 1.5542e-313 7.66846 0.457246 0 7.66496 0.461426 1.5542e-313 7.66113 0.465768 0 7.66488 0.461426 1.5542e-313 7.66846 0.457268 0 7.67108 0.454102 1.5542e-313 7.70508 0.407543 0 7.7034 0.410156 1.5542e-313 7.73438 0.356227 0 7.73304 0.358887 1.5542e-313 7.73303 0.358887 0 7.72922 0.366211 1.5542e-313 7.72705 0.370267 0 7.72529 0.373535 1.5542e-313 7.72529 0.373535 0 7.72121 0.380859 1.5542e-313 7.72705 0.370231 0 7.72921 0.366211 1.5542e-313 7.71973 0.383451 0 7.717 0.388184 1.5542e-313 7.71699 0.388184 0 7.71261 0.395508 1.5542e-313 7.7124 0.395844 0 7.70807 0.402832 1.5542e-313 7.70508 0.407482 0 7.70806 0.402832 1.5542e-313 7.7124 0.395842 0 7.7126 0.395508 1.5542e-313 7.71973 0.38342 0 7.7212 0.380859 1.5542e-313 7.68311 0.439002 0 7.68277 0.439453 1.5542e-313 7.69043 0.429015 0 7.6882 0.432129 1.5542e-313 7.68311 0.438927 0 7.68817 0.432129 1.5542e-313 7.69775 0.41858 0 7.69344 0.424805 1.5542e-313 7.70339 0.410156 0 7.69852 0.41748 1.5542e-313 7.69775 0.418582 0 7.69849 0.41748 1.5542e-313 7.69043 0.428978 0 7.69343 0.424805 1.5542e-313 7.68273 0.439453 0 7.67705 0.446777 1.5542e-313 7.67578 0.448341 0 7.67702 0.446777 1.5542e-313 7.81221 0 0 7.81219 0.00732422 1.5542e-313 7.81219 0.00732422 0 7.81212 0.0146484 1.5542e-313 7.81212 0.0146484 0 7.81199 0.0219727 1.5542e-313 7.81198 0.0219727 0 7.8118 0.0292969 1.5542e-313 7.81182 0.0292969 0 7.81128 0.0439453 3.10839e-313 7.81128 0.0439453 0 7.81051 0.0585938 3.10839e-313 7.8105 0.0585938 0 7.81002 0.065918 1.5542e-313 7.81002 0.065918 0 7.80948 0.0732422 1.5542e-313 7.80951 0.0732422 0 7.80824 0.0878906 3.10839e-313 7.80762 0.0938085 0 7.80748 0.0952148 1.5542e-313 7.80749 0.0952148 0 7.80669 0.102539 1.5542e-313 7.80669 0.102539 0 7.80583 0.109863 1.5542e-313 7.80583 0.109863 0 7.80491 0.117188 1.5542e-313 7.80762 0.0939338 0 7.80822 0.0878906 1.5542e-313         </DataArray>
      </Points>
      <Cells>
        <DataArray type="Int32" Name="connectivity" format="ascii">
0 1 2 3 4 5 6 7 8 9 10 11 12 13 14 15 16 17 18 19 20 21 22 23 24 25 26 27 28 29 30 31 32 33 34 35 36 37 38 39 40 41 42 43 44 45 46 47 48 49 50 51 52 53 54 55 56 57 58 59 60 61 62 63 64 65 66 67 68 69 70 71 72 73 74 75 76 77 78 79 80 81 82 83 84 85 86 87 88 89 90 91 92 93 94 95 96 97 98 99 100 101 102 103 104 105 106 107 108 109 110 111 112 113 114 115 116 117 118 119 120 121 122 123 124 125 126 127 128 129 130 131 132 133 134 135 136 137 138 139 140 141 142 143 144 145 146 147 148 149 150 151 152 153 154 155 156 157 158 159 160 161 162 163 164 165 166 167 168 169 170 171 172 173 174 175 176 177 178 179 180 181 182 183 184 185         </DataArray>
        <DataArray type="Int32" Name="offsets" format="ascii">
2 4 6 8 10 12 14 16 18 20 22 24 26 28 30 32 34 36 38 40 42 44 46 48 50 52 54 56 58 60 62 64 66 68 70 72 74 76 78 80 82 84 86 88 90 92 94 96 98 100 102 104 106 108 110 112 114 116 118 120 122 124 126 128 130 132 134 136 138 140 142 144 146 148 150 152 154 156 158 160 162 164 166 168 170 172 174 176 178 180 182 184 186         </DataArray>
        <DataArray type="UInt8" Name="types" format="ascii">
7 7 7 7 7 7 7 7 7 7 7 7 7 7 7 7 7 7 7 7 7 7 7 7 7 7 7 7 7 7 7 7 7 7 7 7 7 7 7 7 7 7 7 7 7 7 7 7 7 7 7 7 7 7 7 7 7 7 7 7 7 7 7 7 7 7 7 7 7 7 7 7 7 7 7 7 7 7 7 7 7 7 7 7 7 7 7 7 7 7 7 7 7 
        </DataArray>
      </Cells>
      <PointData>
      </PointData>
    </Piece>
  </UnstructuredGrid>
</VTKFile>
