<?xml version="1.0"?>
<VTKFile type="UnstructuredGrid" version="0.1" byte_order="LittleEndian">
  <UnstructuredGrid>
    <Piece NumberOfPoints="134" NumberOfCells="67">
			 <CellData Scalars="scalars">
				 <DataArray type="Float64" Name="f" format="ascii">
0.00586335
0.297657
0.489083
0.99143
0.0598158
0.479535
0.0488459
0.482185
0.923436
0.0721134
0.556706
0.145238
0.707448
0.976489
0.938802
0.283023
0.0552727
0.3162
0.892631
0.600454
0.996965
0.0837701
0.719221
0.904853
0.399068
0.999059
0.562393
0.016371
0.754359
0.103744
0.917189
0.312978
0.998687
0.641149
0.0833
0.926474
0.41472
0.0154956
0.842014
0.336274
0.00802795
0.843337
0.401071
0.0436824
0.941521
0.602095
0.253343
0.0132262
0.925452
0.656501
0.407256
0.190275
0.0237245
0.981318
0.851115
0.729193
0.639359
0.581464
0.555046
0.559701
0.595425
0.662612
0.761801
0.89342
0.0603057
0.996948
0.253127
				 </DataArray>
				 <DataArray type="Float64" NumberOfComponents="3" Name="u.x" format="ascii">
0.937973 2.04044 0.
0.702453 2.06592 0.
0.783473 2.07235 0.
0.67476 2.05076 0.
1.66585 1.63449 0.
1.58288 1.66001 0.
1.57291 1.69449 0.
1.47693 1.72206 0.
1.50668 1.68006 0.
1.47385 1.76952 0.
1.39174 1.79285 0.
1.3683 1.81619 0.
1.26923 1.85017 0.
1.3011 1.80787 0.
1.41203 1.73712 0.
0.973911 1.98165 0.
1.2202 1.95713 0.
1.1965 1.86625 0.
1.15134 1.88908 0.
1.1034 1.98545 0.
0.963548 1.96363 0.
0.969884 2.01454 0.
0.871474 2.03692 0.
0.921304 1.98498 0.
0.464175 -1.62479 0.
0.416808 -1.55166 0.
0.382 -1.62478 0.
0.36251 -1.68879 0.
0.259853 -1.63806 0.
0.213914 -1.64199 0.
0.122399 -1.58158 0.
0.0788987 -1.60137 0.
0.00209912 -1.53088 0.
-0.0417991 -1.59248 0.
-0.0834903 -1.55979 0.
-0.188055 -1.50425 0.
-0.222389 -1.49811 0.
-0.236789 -1.51205 0.
-0.368487 -1.46931 0.
-0.417169 -1.4051 0.
-0.427709 -1.39774 0.
-0.568161 -1.36863 0.
-0.616393 -1.29308 0.
-0.638824 -1.23946 0.
-0.774165 -1.20351 0.
-0.81807 -1.16495 0.
-0.848312 -1.06719 0.
-0.86481 -1.01708 0.
-1.02925 -0.98826 0.
-1.07647 -0.917529 0.
-1.11103 -0.811351 0.
-1.13124 -0.692105 0.
-1.14484 -0.597978 0.
-1.32019 -0.56937 0.
-1.35808 -0.488645 0.
-1.39229 -0.382634 0.
-1.42002 -0.272732 0.
-1.44054 -0.154612 0.
-1.45319 -0.0283406 0.
-1.45746 0.101855 0.
-1.45652 0.230295 0.
-1.45332 0.354462 0.
-1.45011 0.474807 0.
-1.43842 0.586789 0.
-1.30291 0.678305 0.
-1.4267 0.662901 0.
-1.28524 0.803751 0.
				 </DataArray>
			 </CellData>
      <Points>
        <DataArray type="Float32" Name="vertices" NumberOfComponents="3" format="ascii">
8.37891 0.453186 0 8.37822 0.454102 1.5542e-313 8.37158 0.462504 0 8.36647 0.46875 1.5542e-313 8.37819 0.454102 0 8.37246 0.461426 1.5542e-313 8.37158 0.462497 0 8.37244 0.461426 1.5542e-313 8.4375 0.355186 0 8.43577 0.358887 1.5542e-313 8.43576 0.358887 0 8.43221 0.366211 1.5542e-313 8.43018 0.370302 0 8.42855 0.373535 1.5542e-313 8.42855 0.373535 0 8.42474 0.380859 1.5542e-313 8.43018 0.370259 0 8.43221 0.366211 1.5542e-313 8.42285 0.384389 0 8.42081 0.388184 1.5542e-313 8.42081 0.388184 0 8.41674 0.395508 1.5542e-313 8.41553 0.397628 0 8.41253 0.402832 1.5542e-313 8.4082 0.410081 0 8.41253 0.402832 1.5542e-313 8.41553 0.397602 0 8.41673 0.395508 1.5542e-313 8.42285 0.384355 0 8.42473 0.380859 1.5542e-313 8.39355 0.432839 0 8.38896 0.439453 1.5542e-313 8.40088 0.421766 0 8.39893 0.424805 1.5542e-313 8.40816 0.410156 0 8.40362 0.41748 1.5542e-313 8.40088 0.421716 0 8.4036 0.41748 1.5542e-313 8.39892 0.424805 0 8.39404 0.432129 1.5542e-313 8.39355 0.432824 0 8.39402 0.432129 1.5542e-313 8.38623 0.443247 0 8.38368 0.446777 1.5542e-313 8.37891 0.453114 0 8.38366 0.446777 1.5542e-313 8.38623 0.443219 0 8.38894 0.439453 1.5542e-313 7.96875 0.506639 0 7.97582 0.512695 1.5542e-313 7.97573 0.512695 0 7.97607 0.512986 1.5542e-313 7.97607 0.512921 0 7.9834 0.51888 1.5542e-313 7.9834 0.518854 0 7.98491 0.52002 1.5542e-313 7.98488 0.52002 0 7.99072 0.524526 1.5542e-313 7.99072 0.524495 0 7.99463 0.527344 1.5542e-313 7.99454 0.527344 0 7.99805 0.529875 1.5542e-313 7.99805 0.529855 0 8.00502 0.534668 1.5542e-313 8.00491 0.534668 0 8.00537 0.534974 1.5542e-313 8.00537 0.534912 0 8.0127 0.53968 1.5542e-313 8.0127 0.539651 0 8.01651 0.541992 1.5542e-313 8.01643 0.541992 0 8.02002 0.544192 1.5542e-313 8.02002 0.544169 0 8.02734 0.548389 1.5542e-313 8.02734 0.54837 0 8.0291 0.549316 1.5542e-313 8.02906 0.549316 0 8.03467 0.55234 1.5542e-313 8.03467 0.552335 0 8.04199 0.55602 1.5542e-313 8.04199 0.556006 0 8.04335 0.556641 1.5542e-313 8.04332 0.556641 0 8.04932 0.559444 1.5542e-313 8.04932 0.559441 0 8.05664 0.562613 1.5542e-313 8.05664 0.562597 0 8.06007 0.563965 1.5542e-313 8.06 0.563965 0 8.06396 0.565548 1.5542e-313 8.06396 0.565539 0 8.07129 0.568219 1.5542e-313 8.07129 0.568219 0 8.07861 0.570648 1.5542e-313 8.07861 0.570638 0 8.08079 0.571289 1.5542e-313 8.08076 0.571289 0 8.08594 0.572834 1.5542e-313 8.08594 0.572832 0 8.09326 0.574778 1.5542e-313 8.09326 0.574777 0 8.10059 0.576484 1.5542e-313 8.10059 0.576483 0 8.10791 0.577956 1.5542e-313 8.10791 0.577956 0 8.11178 0.578613 1.5542e-313 8.1118 0.578613 0 8.11523 0.579196 1.5542e-313 8.11523 0.579199 0 8.12256 0.580209 1.5542e-313 8.12256 0.580209 0 8.12988 0.580984 1.5542e-313 8.12988 0.580984 0 8.13721 0.581525 1.5542e-313 8.13721 0.581524 0 8.14453 0.581833 1.5542e-313 8.14453 0.581832 0 8.15186 0.581912 1.5542e-313 8.15186 0.581912 0 8.15918 0.581764 1.5542e-313 8.15918 0.581765 0 8.1665 0.581388 1.5542e-313 8.1665 0.581389 0 8.17383 0.58078 1.5542e-313 8.17383 0.580781 0 8.18115 0.579935 1.5542e-313 8.18115 0.579935 0 8.18848 0.578853 1.5542e-313 8.1958 0.577535 0 8.1898 0.578613 1.5542e-313 8.18848 0.578856 0 8.18983 0.578613 1.5542e-313 8.1958 0.577537 0 8.20312 0.575982 1.5542e-313         </DataArray>
      </Points>
      <Cells>
        <DataArray type="Int32" Name="connectivity" format="ascii">
0 1 2 3 4 5 6 7 8 9 10 11 12 13 14 15 16 17 18 19 20 21 22 23 24 25 26 27 28 29 30 31 32 33 34 35 36 37 38 39 40 41 42 43 44 45 46 47 48 49 50 51 52 53 54 55 56 57 58 59 60 61 62 63 64 65 66 67 68 69 70 71 72 73 74 75 76 77 78 79 80 81 82 83 84 85 86 87 88 89 90 91 92 93 94 95 96 97 98 99 100 101 102 103 104 105 106 107 108 109 110 111 112 113 114 115 116 117 118 119 120 121 122 123 124 125 126 127 128 129 130 131 132 133         </DataArray>
        <DataArray type="Int32" Name="offsets" format="ascii">
2 4 6 8 10 12 14 16 18 20 22 24 26 28 30 32 34 36 38 40 42 44 46 48 50 52 54 56 58 60 62 64 66 68 70 72 74 76 78 80 82 84 86 88 90 92 94 96 98 100 102 104 106 108 110 112 114 116 118 120 122 124 126 128 130 132 134         </DataArray>
        <DataArray type="UInt8" Name="types" format="ascii">
7 7 7 7 7 7 7 7 7 7 7 7 7 7 7 7 7 7 7 7 7 7 7 7 7 7 7 7 7 7 7 7 7 7 7 7 7 7 7 7 7 7 7 7 7 7 7 7 7 7 7 7 7 7 7 7 7 7 7 7 7 7 7 7 7 7 7 
        </DataArray>
      </Cells>
      <PointData>
      </PointData>
    </Piece>
  </UnstructuredGrid>
</VTKFile>
