<?xml version="1.0"?>
<VTKFile type="UnstructuredGrid" version="0.1" byte_order="LittleEndian">
  <UnstructuredGrid>
    <Piece NumberOfPoints="120" NumberOfCells="60">
			 <CellData Scalars="scalars">
				 <DataArray type="Float64" Name="f" format="ascii">
0.995119
0.298249
0.92233
0.118286
0.784456
0.0279283
0.616699
0.000569442
0.460402
0.991273
0.339866
0.970728
0.267506
0.953862
0.238545
0.948419
0.250285
0.959463
0.298125
0.981615
0.397333
0.998802
0.559984
0.0164222
0.757776
0.110715
0.925234
0.341681
0.999985
3.19859e-05
0.690701
0.12361
0.961137
0.521253
0.0645573
0.936639
0.522347
0.105172
0.980633
0.688328
0.331382
0.0455234
0.969331
0.738071
0.0161664
0.133481
0.27931
0.438631
0.611793
0.500204
0.694445
0.673362
0.377246
0.413487
0.461573
0.521067
0.592241
0.676128
0.772265
0.880347
				 </DataArray>
				 <DataArray type="Float64" NumberOfComponents="3" Name="u.x" format="ascii">
1.57304 -1.31683 0.
1.57568 -1.3973 0.
1.51983 -1.38598 0.
1.5101 -1.50239 0.
1.44374 -1.47871 0.
1.42974 -1.60191 0.
1.33153 -1.56866 0.
1.32897 -1.65965 0.
1.2183 -1.63199 0.
1.17962 -1.56463 0.
1.1399 -1.69221 0.
1.0609 -1.60793 0.
1.00909 -1.69904 0.
0.973402 -1.63807 0.
0.936936 -1.74284 0.
0.85773 -1.68789 0.
0.816875 -1.8093 0.
0.695901 -1.72663 0.
0.632012 -1.8491 0.
0.550226 -1.75344 0.
0.473614 -1.83278 0.
0.408911 -1.73547 0.
0.359625 -1.82861 0.
0.321803 -1.91368 0.
0.205898 -1.84373 0.
0.140186 -1.86263 0.
0.020342 -1.77668 0.
-0.0403371 -1.79991 0.
-0.159321 -1.71137 0.
-0.0750003 -1.81685 0.
-0.213611 -1.76871 0.
-0.280392 -1.72171 0.
-0.403319 -1.64949 0.
-0.446997 -1.66649 0.
-0.486519 -1.65348 0.
-0.663183 -1.58094 0.
-0.730007 -1.54292 0.
-0.77826 -1.45164 0.
-0.950531 -1.39408 0.
-1.00676 -1.36287 0.
-1.04955 -1.23007 0.
-1.08421 -1.14214 0.
-1.30021 -1.09748 0.
-1.35651 -1.02466 0.
2.59478 0.656412 0.
2.55927 0.72097 0.
2.53057 0.786727 0.
2.48956 0.853131 0.
2.44089 0.918538 0.
2.42368 0.971252 0.
2.41304 1.00475 0.
2.58238 0.0565731 0.
2.62974 0.147121 0.
2.62603 0.202395 0.
2.61605 0.272853 0.
2.58784 0.343536 0.
2.56721 0.399962 0.
2.5498 0.457062 0.
2.53074 0.514564 0.
2.49945 0.577331 0.
				 </DataArray>
			 </CellData>
      <Points>
        <DataArray type="Float32" Name="vertices" NumberOfComponents="3" format="ascii">
12.4799 0.46875 0 12.4805 0.469603 1.5542e-313 12.4805 0.469482 0 12.4853 0.476074 1.5542e-313 12.4853 0.476074 0 12.4878 0.479417 1.5542e-313 12.4878 0.479304 0 12.4909 0.483398 1.5542e-313 12.4908 0.483398 0 12.4951 0.488816 1.5542e-313 12.4951 0.488772 0 12.4967 0.490723 1.5542e-313 12.4966 0.490723 0 12.5024 0.497787 1.5542e-313 12.5024 0.497777 0 12.5027 0.498047 1.5542e-313 12.5027 0.498047 0 12.509 0.505371 1.5542e-313 12.5089 0.505371 0 12.5098 0.506407 1.5542e-313 12.5098 0.506291 0 12.5155 0.512695 1.5542e-313 12.5154 0.512695 0 12.5171 0.514551 1.5542e-313 12.5171 0.514453 0 12.5222 0.52002 1.5542e-313 12.5222 0.52002 0 12.5244 0.522291 1.5542e-313 12.5244 0.522245 0 12.5294 0.527344 1.5542e-313 12.5294 0.527344 0 12.5317 0.52968 1.5542e-313 12.5317 0.52961 0 12.537 0.534668 1.5542e-313 12.5369 0.534668 0 12.5391 0.536686 1.5542e-313 12.5391 0.536608 0 12.545 0.541992 1.5542e-313 12.5449 0.541992 0 12.5464 0.543315 1.5542e-313 12.5464 0.543262 0 12.5534 0.549316 1.5542e-313 12.5533 0.549316 0 12.5537 0.549644 1.5542e-313 12.5537 0.549569 0 12.561 0.555509 1.5542e-313 12.561 0.55548 0 12.5626 0.556641 1.5542e-313 12.5625 0.556641 0 12.5684 0.561091 1.5542e-313 12.5684 0.561048 0 12.5724 0.563965 1.5542e-313 12.5723 0.563965 0 12.5757 0.566348 1.5542e-313 12.5757 0.566323 0 12.583 0.57125 1.5542e-313 12.583 0.571289 0 12.583 0.571321 1.5542e-313 12.583 0.571243 0 12.5831 0.571289 1.5542e-313 12.5831 0.571289 0 12.5903 0.575856 1.5542e-313 12.5903 0.575829 0 12.5951 0.578613 1.5542e-313 12.595 0.578613 0 12.5977 0.580175 1.5542e-313 12.5977 0.580136 0 12.605 0.584104 1.5542e-313 12.605 0.584078 0 12.6087 0.585938 1.5542e-313 12.6086 0.585938 0 12.6123 0.58778 1.5542e-313 12.6123 0.58776 0 12.6196 0.591112 1.5542e-313 12.6196 0.591093 0 12.6248 0.593262 1.5542e-313 12.6247 0.593262 0 12.627 0.594193 1.5542e-313 12.627 0.594163 0 12.6343 0.596926 1.5542e-313 12.6343 0.596926 0 12.6416 0.599392 1.5542e-313 12.6416 0.599382 0 12.6457 0.600586 1.5542e-313 12.6456 0.600586 0 12.6489 0.601574 1.5542e-313 12.6489 0.601565 0 12.6562 0.603443 1.5542e-313 13.0078 0.153729 0 13.0069 0.161133 3.10839e-313 13.0069 0.161133 0 13.0048 0.175781 3.10839e-313 13.0048 0.175781 0 13.0026 0.19043 3.10839e-313 13.0026 0.19043 0 13.0002 0.205078 3.10839e-313 13.0002 0.205078 0 12.9975 0.219727 3.10839e-313 12.9975 0.219727 0 12.9961 0.227051 1.5542e-313 12.9961 0.227051 0 12.9947 0.234375 1.5542e-313 13.0176 0 0 13.0172 0.0292969 6.21678e-313 13.0172 0.0292969 0 13.0167 0.0439453 3.10839e-313 13.0167 0.0439453 0 13.0161 0.0585938 3.10839e-313 13.0161 0.0585938 0 13.0153 0.0732422 3.10839e-313 13.0153 0.0732422 0 13.0143 0.0878906 3.10839e-313 13.0144 0.0878906 0 13.0132 0.102539 3.10839e-313 13.0132 0.102539 0 13.0119 0.117188 3.10839e-313 13.0119 0.117188 0 13.0104 0.131836 3.10839e-313 13.0104 0.131836 0 13.0087 0.146484 3.10839e-313         </DataArray>
      </Points>
      <Cells>
        <DataArray type="Int32" Name="connectivity" format="ascii">
0 1 2 3 4 5 6 7 8 9 10 11 12 13 14 15 16 17 18 19 20 21 22 23 24 25 26 27 28 29 30 31 32 33 34 35 36 37 38 39 40 41 42 43 44 45 46 47 48 49 50 51 52 53 54 55 56 57 58 59 60 61 62 63 64 65 66 67 68 69 70 71 72 73 74 75 76 77 78 79 80 81 82 83 84 85 86 87 88 89 90 91 92 93 94 95 96 97 98 99 100 101 102 103 104 105 106 107 108 109 110 111 112 113 114 115 116 117 118 119         </DataArray>
        <DataArray type="Int32" Name="offsets" format="ascii">
2 4 6 8 10 12 14 16 18 20 22 24 26 28 30 32 34 36 38 40 42 44 46 48 50 52 54 56 58 60 62 64 66 68 70 72 74 76 78 80 82 84 86 88 90 92 94 96 98 100 102 104 106 108 110 112 114 116 118 120         </DataArray>
        <DataArray type="UInt8" Name="types" format="ascii">
7 7 7 7 7 7 7 7 7 7 7 7 7 7 7 7 7 7 7 7 7 7 7 7 7 7 7 7 7 7 7 7 7 7 7 7 7 7 7 7 7 7 7 7 7 7 7 7 7 7 7 7 7 7 7 7 7 7 7 7 
        </DataArray>
      </Cells>
      <PointData>
      </PointData>
    </Piece>
  </UnstructuredGrid>
</VTKFile>
