<?xml version="1.0"?>
<VTKFile type="UnstructuredGrid" version="0.1" byte_order="LittleEndian">
  <UnstructuredGrid>
    <Piece NumberOfPoints="98" NumberOfCells="49">
			 <CellData Scalars="scalars">
				 <DataArray type="Float64" Name="f" format="ascii">
0.345789
0.239774
0.166006
0.124558
0.115726
0.13988
0.197164
0.287364
0.410183
0.565743
0.754719
0.0195723
0.958055
0.234438
0.526732
0.00080696
0.216673
0.854063
0.61474
0.0824327
0.966112
0.0719391
0.0805626
0.579507
0.184527
0.985351
0.518922
0.949188
0.0101706
0.47061
0.789919
0.209749
0.978273
0.877318
0.001097
0.0160943
0.742325
0.614875
0.52325
0.482976
0.999966
0.00630141
7.98102e-05
0.498441
0.564785
0.0351397
0.670864
0.796419
0.999801
				 </DataArray>
				 <DataArray type="Float64" NumberOfComponents="3" Name="u.x" format="ascii">
-1.36279 -0.470216 0.
-1.38801 -0.334429 0.
-1.40594 -0.202097 0.
-1.42002 -0.0788498 0.
-1.43152 0.0393858 0.
-1.4406 0.160419 0.
-1.44549 0.289027 0.
-1.4457 0.424993 0.
-1.44095 0.564315 0.
-1.43465 0.703532 0.
-1.41981 0.832678 0.
-1.23616 0.928684 0.
-1.39679 0.907299 0.
-1.23374 1.0194 0.
-1.24132 1.14877 0.
-0.993974 1.25665 0.
-1.02767 1.33568 0.
-1.221 1.26069 0.
-1.01911 1.49942 0.
-0.806954 1.53737 0.
-1.00833 1.51435 0.
-0.0312209 2.00816 0.
-0.629099 1.67818 0.
-0.649481 1.77981 0.
-0.498037 1.78707 0.
-0.671304 1.79176 0.
-0.820234 1.63029 0.
-0.83613 1.66903 0.
-0.2609 1.90772 0.
-0.32455 1.9699 0.
-0.512739 1.91616 0.
-0.196141 1.95589 0.
-0.348976 1.95883 0.
-0.223202 2.01927 0.
0.240839 2.05196 0.
0.118554 2.03717 0.
-0.0819938 2.07039 0.
0.0540118 2.09661 0.
0.174097 2.11262 0.
0.293167 2.13176 0.
0.155399 2.10569 0.
0.652653 2.0859 0.
0.561387 2.08066 0.
0.405384 2.128 0.
0.496301 2.12989 0.
0.7449 2.09929 0.
0.584727 2.13081 0.
0.678853 2.11295 0.
0.26865 2.11284 0.
				 </DataArray>
			 </CellData>
      <Points>
        <DataArray type="Float32" Name="vertices" NumberOfComponents="3" format="ascii">
8.48145 0.582957 0 8.48877 0.583852 1.5542e-313 8.48877 0.583852 0 8.49609 0.584511 1.5542e-313 8.49609 0.584511 0 8.50342 0.584933 1.5542e-313 8.50342 0.584933 0 8.51074 0.585117 1.5542e-313 8.51074 0.585118 0 8.51807 0.585062 1.5542e-313 8.51807 0.585062 0 8.52539 0.584764 1.5542e-313 8.52539 0.584763 0 8.53271 0.584223 1.5542e-313 8.53271 0.584223 0 8.54004 0.583443 1.5542e-313 8.54004 0.583443 0 8.54736 0.582424 1.5542e-313 8.54736 0.582425 0 8.55469 0.581163 1.5542e-313 8.55469 0.581164 0 8.56201 0.579656 1.5542e-313 8.56934 0.577904 0 8.56638 0.578613 1.5542e-313 8.56201 0.579652 0 8.56634 0.578613 1.5542e-313 8.56934 0.577902 0 8.57666 0.575891 1.5542e-313 8.57666 0.575891 0 8.58398 0.573619 1.5542e-313 8.59131 0.571116 0 8.59081 0.571289 1.5542e-313 8.59131 0.571093 0 8.59863 0.568311 1.5542e-313 8.58398 0.573613 0 8.59072 0.571289 1.5542e-313 8.59863 0.56831 0 8.60596 0.565263 1.5542e-313 8.61328 0.561965 0 8.60886 0.563965 1.5542e-313 8.60596 0.565247 0 8.60879 0.563965 1.5542e-313 8.67188 0.524895 0 8.66872 0.527344 1.5542e-313 8.62793 0.5545 0 8.62389 0.556641 1.5542e-313 8.62793 0.554484 0 8.63525 0.550309 1.5542e-313 8.64258 0.54584 0 8.63688 0.549316 1.5542e-313 8.63525 0.550292 0 8.63687 0.549316 1.5542e-313 8.61328 0.561961 0 8.62061 0.558368 1.5542e-313 8.62061 0.558341 0 8.62381 0.556641 1.5542e-313 8.6499 0.541155 0 8.6486 0.541992 1.5542e-313 8.6499 0.541087 0 8.65723 0.536004 1.5542e-313 8.64258 0.545821 0 8.64847 0.541992 1.5542e-313 8.66455 0.530589 0 8.65903 0.534668 1.5542e-313 8.65723 0.53596 0 8.65903 0.534668 1.5542e-313 8.66455 0.530542 0 8.66867 0.527344 1.5542e-313 8.68652 0.512369 0 8.68616 0.512695 1.5542e-313 8.6792 0.518812 0 8.67777 0.52002 1.5542e-313 8.67188 0.524818 0 8.67764 0.52002 1.5542e-313 8.6792 0.518734 0 8.68604 0.512695 1.5542e-313 8.68652 0.512281 0 8.69385 0.505444 1.5542e-313 8.70117 0.498218 0 8.69393 0.505371 1.5542e-313 8.69385 0.50543 0 8.69391 0.505371 1.5542e-313 8.71582 0.482523 0 8.71505 0.483398 1.5542e-313 8.7085 0.490627 0 8.70841 0.490723 1.5542e-313 8.70836 0.490723 0 8.70133 0.498047 1.5542e-313 8.7085 0.490559 0 8.71502 0.483398 1.5542e-313 8.72314 0.473943 0 8.72138 0.476074 1.5542e-313 8.71582 0.482458 0 8.72135 0.476074 1.5542e-313 8.72314 0.473898 0 8.72739 0.46875 1.5542e-313 8.70117 0.498194 0 8.70132 0.498047 1.5542e-313         </DataArray>
      </Points>
      <Cells>
        <DataArray type="Int32" Name="connectivity" format="ascii">
0 1 2 3 4 5 6 7 8 9 10 11 12 13 14 15 16 17 18 19 20 21 22 23 24 25 26 27 28 29 30 31 32 33 34 35 36 37 38 39 40 41 42 43 44 45 46 47 48 49 50 51 52 53 54 55 56 57 58 59 60 61 62 63 64 65 66 67 68 69 70 71 72 73 74 75 76 77 78 79 80 81 82 83 84 85 86 87 88 89 90 91 92 93 94 95 96 97         </DataArray>
        <DataArray type="Int32" Name="offsets" format="ascii">
2 4 6 8 10 12 14 16 18 20 22 24 26 28 30 32 34 36 38 40 42 44 46 48 50 52 54 56 58 60 62 64 66 68 70 72 74 76 78 80 82 84 86 88 90 92 94 96 98         </DataArray>
        <DataArray type="UInt8" Name="types" format="ascii">
7 7 7 7 7 7 7 7 7 7 7 7 7 7 7 7 7 7 7 7 7 7 7 7 7 7 7 7 7 7 7 7 7 7 7 7 7 7 7 7 7 7 7 7 7 7 7 7 7 
        </DataArray>
      </Cells>
      <PointData>
      </PointData>
    </Piece>
  </UnstructuredGrid>
</VTKFile>
